LAMMPS 3d granular data file

10050 atoms
0 bonds
0 angles
0 dihedrals
0 impropers

3 atom types
0 bond types
0 angle types
0 dihedral types
0 improper types

-3.5 3.5 xlo xhi
-3.5 3.5 ylo yhi
-2 1890.1 zlo zhi


Atoms

1 2 2.600  0.050 -2.8500 -2.8500 1.4001
2 2 2.600  0.050 -2.8500 -1.5500 1.3467
3 2 2.600  0.050 -2.8500 -0.2500 1.2255
4 2 2.600  0.050 -2.8500 1.0500 1.6112
5 2 2.600  0.050 -2.8500 2.3500 1.3007
6 2 2.600  0.050 -1.5500 -2.8500 1.3450
7 2 2.600  0.050 -1.5500 -1.5500 1.4111
8 2 2.600  0.050 -1.5500 -0.2500 1.4434
9 2 2.600  0.050 -1.5500 1.0500 1.7229
10 2 2.600  0.050 -1.5500 2.3500 1.5487
11 2 2.600  0.050 -0.2500 -2.8500 1.2028
12 2 2.600  0.050 -0.2500 -1.5500 1.3340
13 2 2.600  0.050 -0.2500 -0.2500 1.2740
14 2 2.600  0.050 -0.2500 1.0500 1.4303
15 2 2.600  0.050 -0.2500 2.3500 1.5588
16 2 2.600  0.050 1.0500 -2.8500 1.1810
17 2 2.600  0.050 1.0500 -1.5500 1.3193
18 2 2.600  0.050 1.0500 -0.2500 1.3742
19 2 2.600  0.050 1.0500 1.0500 1.1074
20 2 2.600  0.050 1.0500 2.3500 1.0646
21 2 2.600  0.050 2.3500 -2.8500 1.0027
22 2 2.600  0.050 2.3500 -1.5500 1.0234
23 2 2.600  0.050 2.3500 -0.2500 1.1881
24 2 2.600  0.050 2.3500 1.0500 1.2483
25 2 2.600  0.050 2.3500 2.3500 1.2579
26 3 2.600  0.050 -2.8500 -2.8500 629.6028
27 3 2.600  0.050 -2.8500 -1.5500 629.0138
28 3 2.600  0.050 -2.8500 -0.2500 628.8631
29 3 2.600  0.050 -2.8500 1.0500 629.2528
30 3 2.600  0.050 -2.8500 2.3500 628.6107
31 3 2.600  0.050 -1.5500 -2.8500 629.3066
32 3 2.600  0.050 -1.5500 -1.5500 629.0781
33 3 2.600  0.050 -1.5500 -0.2500 629.2574
34 3 2.600  0.050 -1.5500 1.0500 629.0456
35 3 2.600  0.050 -1.5500 2.3500 629.1401
36 3 2.600  0.050 -0.2500 -2.8500 629.1417
37 3 2.600  0.050 -0.2500 -1.5500 629.4974
38 3 2.600  0.050 -0.2500 -0.2500 629.0131
39 3 2.600  0.050 -0.2500 1.0500 628.8522
40 3 2.600  0.050 -0.2500 2.3500 628.6000
41 3 2.600  0.050 1.0500 -2.8500 629.0616
42 3 2.600  0.050 1.0500 -1.5500 628.9300
43 3 2.600  0.050 1.0500 -0.2500 629.1388
44 3 2.600  0.050 1.0500 1.0500 628.7901
45 3 2.600  0.050 1.0500 2.3500 629.0695
46 3 2.600  0.050 2.3500 -2.8500 629.2748
47 3 2.600  0.050 2.3500 -1.5500 628.7018
48 3 2.600  0.050 2.3500 -0.2500 628.8363
49 3 2.600  0.050 2.3500 1.0500 629.1783
50 3 2.600  0.050 2.3500 2.3500 629.0798
51 1 0.808  1.000 -1.7577 -1.8999 2.6000
52 1 0.613  1.000 -2.2429 -0.5968 2.6000
53 1 0.871  1.000 -2.2261 0.7606 2.6000
54 1 1.466  1.000 -2.0403 2.4066 2.6000
55 1 0.961  1.000 -0.3932 -2.2332 2.6000
56 1 1.225  1.000 -0.3523 -0.3052 2.6000
57 1 0.850  1.000 -0.3368 1.1539 2.6000
58 1 1.023  1.000 -0.5824 2.7064 2.6000
59 1 1.080  1.000 1.1159 -1.9810 2.6000
60 1 1.150  1.000 0.7978 -0.3073 2.6000
61 1 1.272  1.000 1.1822 0.8374 2.6000
62 1 1.016  1.000 0.9052 2.6304 2.6000
63 1 0.889  1.000 2.2868 -2.1570 2.6000
64 1 1.151  1.000 2.2999 -0.5316 2.6000
65 1 1.052  1.000 2.7023 0.7555 2.6000
66 1 1.082  1.000 2.4313 2.7379 2.6000
67 1 1.035  1.000 -2.0339 -2.1278 3.6000
68 1 0.868  1.000 -1.9872 -0.3305 3.6000
69 1 1.218  1.000 -2.1319 0.9899 3.6000
70 1 0.843  1.000 -2.2048 2.5885 3.6000
71 1 0.734  1.000 -0.7351 -1.9584 3.6000
72 1 1.049  1.000 -0.3698 -0.4814 3.6000
73 1 1.266  1.000 -0.7215 1.1538 3.6000
74 1 1.223  1.000 -0.5891 2.7422 3.6000
75 1 1.461  1.000 0.8869 -1.8408 3.6000
76 1 0.650  1.000 1.1842 -0.3955 3.6000
77 1 1.248  1.000 0.8910 0.8506 3.6000
78 1 0.817  1.000 0.8048 2.2854 3.6000
79 1 0.966  1.000 2.2521 -2.1014 3.6000
80 1 0.843  1.000 2.4552 -0.6786 3.6000
81 1 1.106  1.000 2.3076 0.8590 3.6000
82 1 0.976  1.000 2.5302 2.6439 3.6000
83 1 1.251  1.000 -2.1799 -2.2357 4.6000
84 1 0.860  1.000 -2.2461 -0.3897 4.6000
85 1 1.101  1.000 -1.9393 1.2461 4.6000
86 1 1.047  1.000 -2.0709 2.4056 4.6000
87 1 1.030  1.000 -0.3917 -1.8829 4.6000
88 1 1.339  1.000 -0.6643 -0.3654 4.6000
89 1 0.786  1.000 -0.7109 1.0482 4.6000
90 1 1.055  1.000 -0.3842 2.6425 4.6000
91 1 0.932  1.000 1.2124 -2.2071 4.6000
92 1 1.334  1.000 1.0607 -0.3986 4.6000
93 1 0.575  1.000 0.9848 1.1275 4.6000
94 1 1.057  1.000 1.2476 2.3286 4.6000
95 1 0.943  1.000 2.5402 -1.8499 4.6000
96 1 0.890  1.000 2.2934 -0.6304 4.6000
97 1 1.395  1.000 2.6585 1.2370 4.6000
98 1 1.114  1.000 2.2542 2.5229 4.6000
99 1 1.017  1.000 -2.0754 -2.1600 5.6000
100 1 0.879  1.000 -1.8810 -0.3490 5.6000
101 1 1.469  1.000 -1.7893 0.9723 5.6000
102 1 0.875  1.000 -1.9923 2.5403 5.6000
103 1 1.050  1.000 -0.7289 -2.1957 5.6000
104 1 0.876  1.000 -0.6831 -0.3536 5.6000
105 1 1.159  1.000 -0.3459 1.0173 5.6000
106 1 1.008  1.000 -0.7273 2.2500 5.6000
107 1 0.901  1.000 1.2151 -1.8631 5.6000
108 1 1.074  1.000 1.0129 -0.4053 5.6000
109 1 0.871  1.000 0.9895 0.9871 5.6000
110 1 0.941  1.000 1.1467 2.5220 5.6000
111 1 0.837  1.000 2.5304 -2.0190 5.6000
112 1 1.125  1.000 2.5820 -0.4517 5.6000
113 1 1.366  1.000 2.7464 1.2477 5.6000
114 1 1.485  1.000 2.6028 2.4693 5.6000
115 1 0.982  1.000 -1.9832 -2.0681 6.6000
116 1 0.951  1.000 -2.2016 -0.5307 6.6000
117 1 0.946  1.000 -2.1394 0.9386 6.6000
118 1 1.054  1.000 -2.1277 2.6572 6.6000
119 1 1.142  1.000 -0.5453 -2.1128 6.6000
120 1 1.228  1.000 -0.5410 -0.3807 6.6000
121 1 1.325  1.000 -0.5709 0.8827 6.6000
122 1 0.789  1.000 -0.2580 2.3671 6.6000
123 1 0.888  1.000 1.1307 -1.8717 6.6000
124 1 0.982  1.000 0.9786 -0.6458 6.6000
125 1 0.545  1.000 0.9391 1.0127 6.6000
126 1 1.053  1.000 1.0014 2.4561 6.6000
127 1 1.254  1.000 2.3076 -2.0185 6.6000
128 1 1.235  1.000 2.6597 -0.4496 6.6000
129 1 1.272  1.000 2.4813 0.9373 6.6000
130 1 0.906  1.000 2.4987 2.3155 6.6000
131 1 1.000  1.000 -2.1361 -1.9630 7.6000
132 1 0.691  1.000 -1.8671 -0.5677 7.6000
133 1 0.857  1.000 -1.7662 1.1106 7.6000
134 1 1.135  1.000 -1.9369 2.2628 7.6000
135 1 1.062  1.000 -0.5573 -2.0490 7.6000
136 1 0.961  1.000 -0.4355 -0.6808 7.6000
137 1 0.773  1.000 -0.7427 0.8173 7.6000
138 1 1.507  1.000 -0.4892 2.2569 7.6000
139 1 1.093  1.000 0.9261 -1.9862 7.6000
140 1 0.950  1.000 0.8919 -0.3778 7.6000
141 1 0.703  1.000 0.9743 1.2417 7.6000
142 1 1.130  1.000 0.9189 2.6512 7.6000
143 1 1.006  1.000 2.5295 -1.7801 7.6000
144 1 0.835  1.000 2.6526 -0.6808 7.6000
145 1 1.141  1.000 2.3328 0.7643 7.6000
146 1 1.072  1.000 2.2532 2.7013 7.6000
147 1 1.150  1.000 -1.9157 -1.8845 8.6000
148 1 1.240  1.000 -1.9808 -0.2729 8.6000
149 1 1.067  1.000 -2.2301 1.1795 8.6000
150 1 0.906  1.000 -2.1650 2.5946 8.6000
151 1 0.644  1.000 -0.6361 -2.0387 8.6000
152 1 0.808  1.000 -0.4697 -0.5987 8.6000
153 1 1.125  1.000 -0.6753 0.9608 8.6000
154 1 1.219  1.000 -0.5589 2.3605 8.6000
155 1 0.985  1.000 0.9213 -2.1743 8.6000
156 1 0.985  1.000 1.2306 -0.6083 8.6000
157 1 0.804  1.000 1.0329 1.2050 8.6000
158 1 1.023  1.000 0.9424 2.2690 8.6000
159 1 1.110  1.000 2.6555 -2.0972 8.6000
160 1 0.728  1.000 2.3807 -0.3541 8.6000
161 1 0.696  1.000 2.6156 1.0801 8.6000
162 1 1.336  1.000 2.7194 2.3809 8.6000
163 1 0.789  1.000 -1.9425 -1.9538 9.6000
164 1 1.026  1.000 -2.1654 -0.4867 9.6000
165 1 0.886  1.000 -2.1538 1.0260 9.6000
166 1 0.918  1.000 -2.0015 2.7347 9.6000
167 1 0.939  1.000 -0.6042 -1.8089 9.6000
168 1 0.988  1.000 -0.5053 -0.6252 9.6000
169 1 1.306  1.000 -0.6153 1.0869 9.6000
170 1 0.928  1.000 -0.2965 2.3151 9.6000
171 1 0.999  1.000 0.8336 -2.0771 9.6000
172 1 0.982  1.000 0.8736 -0.6675 9.6000
173 1 1.141  1.000 0.7588 0.8979 9.6000
174 1 1.013  1.000 1.0312 2.3959 9.6000
175 1 0.585  1.000 2.5386 -1.9561 9.6000
176 1 1.332  1.000 2.4423 -0.4118 9.6000
177 1 0.998  1.000 2.2643 1.1974 9.6000
178 1 1.001  1.000 2.2965 2.3674 9.6000
179 1 0.968  1.000 -1.8308 -2.1145 10.6000
180 1 1.081  1.000 -1.9354 -0.5681 10.6000
181 1 0.999  1.000 -1.8266 0.9469 10.6000
182 1 1.297  1.000 -1.8563 2.3293 10.6000
183 1 1.152  1.000 -0.3679 -1.8813 10.6000
184 1 1.108  1.000 -0.5392 -0.6162 10.6000
185 1 1.166  1.000 -0.5668 0.9189 10.6000
186 1 0.943  1.000 -0.5360 2.5658 10.6000
187 1 1.309  1.000 0.8650 -2.0840 10.6000
188 1 1.171  1.000 1.1182 -0.6954 10.6000
189 1 1.085  1.000 0.9134 0.9248 10.6000
190 1 0.745  1.000 1.2251 2.7136 10.6000
191 1 1.042  1.000 2.6558 -1.9643 10.6000
192 1 1.041  1.000 2.4661 -0.2915 10.6000
193 1 1.059  1.000 2.5934 0.9839 10.6000
194 1 1.065  1.000 2.6564 2.6073 10.6000
195 1 1.148  1.000 -1.9862 -2.0409 11.6000
196 1 0.998  1.000 -1.8348 -0.5327 11.6000
197 1 1.348  1.000 -1.9101 1.1817 11.6000
198 1 0.784  1.000 -2.1211 2.6771 11.6000
199 1 1.042  1.000 -0.4530 -2.1594 11.6000
200 1 1.056  1.000 -0.5991 -0.5692 11.6000
201 1 0.874  1.000 -0.3482 1.0294 11.6000
202 1 1.049  1.000 -0.5012 2.3362 11.6000
203 1 0.616  1.000 1.0843 -2.1661 11.6000
204 1 1.122  1.000 1.2336 -0.3511 11.6000
205 1 0.810  1.000 1.0220 1.2214 11.6000
206 1 1.103  1.000 1.0489 2.4252 11.6000
207 1 1.349  1.000 2.3156 -1.8106 11.6000
208 1 0.944  1.000 2.7419 -0.7391 11.6000
209 1 0.724  1.000 2.5241 0.8045 11.6000
210 1 1.382  1.000 2.2597 2.4047 11.6000
211 1 1.100  1.000 -1.9681 -1.8010 12.6000
212 1 0.957  1.000 -1.8979 -0.3676 12.6000
213 1 0.910  1.000 -2.1690 0.9293 12.6000
214 1 1.459  1.000 -2.2101 2.3639 12.6000
215 1 1.157  1.000 -0.2920 -1.9656 12.6000
216 1 1.220  1.000 -0.5848 -0.3106 12.6000
217 1 1.079  1.000 -0.4297 0.8928 12.6000
218 1 0.963  1.000 -0.5574 2.7057 12.6000
219 1 1.086  1.000 1.0116 -2.1811 12.6000
220 1 1.004  1.000 0.9165 -0.2726 12.6000
221 1 1.002  1.000 0.7649 1.0677 12.6000
222 1 0.849  1.000 1.1619 2.2880 12.6000
223 1 0.941  1.000 2.3044 -2.2345 12.6000
224 1 0.954  1.000 2.4705 -0.7400 12.6000
225 1 0.680  1.000 2.5669 1.1375 12.6000
226 1 0.793  1.000 2.7242 2.4638 12.6000
227 1 0.942  1.000 -2.2465 -1.8051 13.6000
228 1 1.046  1.000 -1.8705 -0.5606 13.6000
229 1 1.303  1.000 -2.1442 0.8915 13.6000
230 1 0.831  1.000 -2.0153 2.4848 13.6000
231 1 1.155  1.000 -0.5938 -1.8729 13.6000
232 1 0.974  1.000 -0.4052 -0.3416 13.6000
233 1 1.159  1.000 -0.5421 1.0623 13.6000
234 1 1.026  1.000 -0.3128 2.4882 13.6000
235 1 1.158  1.000 0.9270 -1.8455 13.6000
236 1 1.307  1.000 1.0719 -0.2891 13.6000
237 1 0.784  1.000 0.7783 1.1068 13.6000
238 1 0.877  1.000 0.8046 2.4408 13.6000
239 1 0.678  1.000 2.4571 -2.0420 13.6000
240 1 1.187  1.000 2.4969 -0.6301 13.6000
241 1 1.085  1.000 2.3320 1.1270 13.6000
242 1 1.281  1.000 2.4995 2.3930 13.6000
243 1 1.191  1.000 -1.8870 -1.7526 14.6000
244 1 0.885  1.000 -1.8438 -0.5327 14.6000
245 1 0.592  1.000 -2.0178 0.9711 14.6000
246 1 1.121  1.000 -2.1459 2.6340 14.6000
247 1 1.186  1.000 -0.4676 -2.1816 14.6000
248 1 1.344  1.000 -0.2975 -0.5857 14.6000
249 1 1.058  1.000 -0.6191 0.9761 14.6000
250 1 1.044  1.000 -0.6311 2.3975 14.6000
251 1 1.330  1.000 0.9966 -1.7939 14.6000
252 1 1.081  1.000 1.1882 -0.7211 14.6000
253 1 1.345  1.000 0.8653 1.2009 14.6000
254 1 0.773  1.000 1.1084 2.5812 14.6000
255 1 1.260  1.000 2.4397 -2.0591 14.6000
256 1 1.064  1.000 2.5510 -0.4383 14.6000
257 1 1.424  1.000 2.4205 0.9185 14.6000
258 1 0.632  1.000 2.6915 2.3565 14.6000
259 1 1.233  1.000 -2.2036 -1.7979 15.6000
260 1 1.105  1.000 -1.8492 -0.4778 15.6000
261 1 0.900  1.000 -2.1396 0.7817 15.6000
262 1 0.643  1.000 -1.9888 2.7495 15.6000
263 1 1.168  1.000 -0.3025 -1.9865 15.6000
264 1 1.012  1.000 -0.7023 -0.2791 15.6000
265 1 0.933  1.000 -0.5832 1.1275 15.6000
266 1 1.158  1.000 -0.3747 2.5341 15.6000
267 1 0.790  1.000 1.2291 -2.0173 15.6000
268 1 1.053  1.000 0.8872 -0.5637 15.6000
269 1 0.936  1.000 0.7698 0.8875 15.6000
270 1 0.894  1.000 1.1654 2.3762 15.6000
271 1 0.908  1.000 2.3878 -2.1816 15.6000
272 1 0.952  1.000 2.6434 -0.5669 15.6000
273 1 1.150  1.000 2.3584 0.9833 15.6000
274 1 0.852  1.000 2.3295 2.7215 15.6000
275 1 1.336  1.000 -1.9978 -2.1729 16.6000
276 1 1.151  1.000 -2.1789 -0.6434 16.6000
277 1 0.782  1.000 -1.9317 0.7612 16.6000
278 1 1.236  1.000 -1.7987 2.2803 16.6000
279 1 0.990  1.000 -0.5586 -1.8234 16.6000
280 1 0.869  1.000 -0.5304 -0.6223 16.6000
281 1 0.647  1.000 -0.3811 1.1092 16.6000
282 1 0.914  1.000 -0.2867 2.3489 16.6000
283 1 0.956  1.000 1.0830 -2.2341 16.6000
284 1 0.930  1.000 1.2095 -0.7065 16.6000
285 1 1.033  1.000 0.9517 0.8660 16.6000
286 1 1.212  1.000 1.1286 2.5649 16.6000
287 1 0.856  1.000 2.4667 -2.0831 16.6000
288 1 1.088  1.000 2.5111 -0.3083 16.6000
289 1 0.964  1.000 2.6266 0.8318 16.6000
290 1 0.734  1.000 2.4033 2.2780 16.6000
291 1 0.869  1.000 -1.8501 -1.8716 17.6000
292 1 1.027  1.000 -1.8304 -0.3138 17.6000
293 1 1.046  1.000 -1.9784 0.9202 17.6000
294 1 1.113  1.000 -2.0947 2.2939 17.6000
295 1 1.033  1.000 -0.3957 -2.0819 17.6000
296 1 0.686  1.000 -0.2744 -0.5101 17.6000
297 1 1.031  1.000 -0.7037 1.0098 17.6000
298 1 1.607  1.000 -0.3489 2.4693 17.6000
299 1 0.766  1.000 0.9809 -1.7557 17.6000
300 1 1.126  1.000 0.9666 -0.5781 17.6000
301 1 0.908  1.000 0.9709 1.2030 17.6000
302 1 1.021  1.000 1.1503 2.3655 17.6000
303 1 0.692  1.000 2.2824 -2.0671 17.6000
304 1 1.215  1.000 2.3505 -0.5595 17.6000
305 1 1.147  1.000 2.6414 1.0631 17.6000
306 1 1.233  1.000 2.3098 2.4793 17.6000
307 1 0.608  1.000 -1.8494 -2.0999 18.6000
308 1 0.493  1.000 -1.7678 -0.3367 18.6000
309 1 0.981  1.000 -1.8462 0.7922 18.6000
310 1 0.818  1.000 -2.0000 2.5667 18.6000
311 1 1.115  1.000 -0.5667 -1.8596 18.6000
312 1 0.875  1.000 -0.5018 -0.2905 18.6000
313 1 1.132  1.000 -0.6793 1.2289 18.6000
314 1 0.979  1.000 -0.7148 2.5599 18.6000
315 1 1.088  1.000 1.1174 -2.1374 18.6000
316 1 1.156  1.000 0.9364 -0.6278 18.6000
317 1 1.245  1.000 0.8402 1.0443 18.6000
318 1 0.951  1.000 1.1696 2.2650 18.6000
319 1 1.574  1.000 2.4221 -1.8783 18.6000
320 1 1.162  1.000 2.5006 -0.6880 18.6000
321 1 1.005  1.000 2.2588 1.2182 18.6000
322 1 1.138  1.000 2.5455 2.5140 18.6000
323 1 0.774  1.000 -1.8320 -1.8484 19.6000
324 1 1.156  1.000 -1.7930 -0.4294 19.6000
325 1 1.015  1.000 -2.1354 0.9739 19.6000
326 1 1.075  1.000 -2.0551 2.4296 19.6000
327 1 0.496  1.000 -0.7262 -2.0999 19.6000
328 1 1.429  1.000 -0.5576 -0.6133 19.6000
329 1 1.112  1.000 -0.3824 0.9177 19.6000
330 1 0.747  1.000 -0.7039 2.3072 19.6000
331 1 0.801  1.000 0.9089 -1.9751 19.6000
332 1 1.201  1.000 0.9966 -0.6860 19.6000
333 1 1.145  1.000 0.9919 1.2275 19.6000
334 1 1.064  1.000 0.8260 2.2889 19.6000
335 1 0.697  1.000 2.4552 -1.8362 19.6000
336 1 1.065  1.000 2.6028 -0.6356 19.6000
337 1 0.848  1.000 2.3623 1.1381 19.6000
338 1 0.759  1.000 2.3154 2.2877 19.6000
339 1 0.892  1.000 -1.9946 -2.0887 20.6000
340 1 0.669  1.000 -1.7626 -0.4015 20.6000
341 1 0.792  1.000 -1.8727 1.0244 20.6000
342 1 0.708  1.000 -1.7745 2.6376 20.6000
343 1 0.937  1.000 -0.2612 -2.0465 20.6000
344 1 1.208  1.000 -0.3667 -0.5516 20.6000
345 1 0.646  1.000 -0.7177 1.1384 20.6000
346 1 0.794  1.000 -0.3223 2.3343 20.6000
347 1 1.218  1.000 1.1651 -2.2302 20.6000
348 1 0.942  1.000 1.0840 -0.6839 20.6000
349 1 1.129  1.000 1.1357 1.1482 20.6000
350 1 0.849  1.000 1.1032 2.3471 20.6000
351 1 0.965  1.000 2.5883 -2.0127 20.6000
352 1 0.897  1.000 2.3074 -0.6905 20.6000
353 1 1.164  1.000 2.7274 1.0611 20.6000
354 1 0.822  1.000 2.6078 2.7430 20.6000
355 1 0.739  1.000 -2.2375 -2.1397 21.6000
356 1 0.523  1.000 -1.8066 -0.5006 21.6000
357 1 0.914  1.000 -1.8110 0.9320 21.6000
358 1 1.075  1.000 -1.9702 2.4929 21.6000
359 1 1.178  1.000 -0.4864 -2.2132 21.6000
360 1 1.019  1.000 -0.5955 -0.6346 21.6000
361 1 0.917  1.000 -0.2624 0.8659 21.6000
362 1 0.935  1.000 -0.2702 2.2522 21.6000
363 1 1.243  1.000 1.0248 -1.7584 21.6000
364 1 1.003  1.000 1.0005 -0.4552 21.6000
365 1 1.162  1.000 1.0879 1.1924 21.6000
366 1 0.761  1.000 1.2214 2.7245 21.6000
367 1 1.101  1.000 2.6808 -1.7710 21.6000
368 1 1.292  1.000 2.7024 -0.3017 21.6000
369 1 0.814  1.000 2.5937 1.1912 21.6000
370 1 0.745  1.000 2.5163 2.7318 21.6000
371 1 0.991  1.000 -1.9913 -1.9311 22.6000
372 1 0.893  1.000 -1.9503 -0.6907 22.6000
373 1 1.290  1.000 -1.8435 0.9854 22.6000
374 1 0.832  1.000 -2.0668 2.4488 22.6000
375 1 0.879  1.000 -0.3178 -1.9305 22.6000
376 1 0.864  1.000 -0.7247 -0.4211 22.6000
377 1 0.681  1.000 -0.6729 1.0468 22.6000
378 1 1.050  1.000 -0.7492 2.2654 22.6000
379 1 0.923  1.000 1.1496 -1.9657 22.6000
380 1 1.077  1.000 0.8667 -0.5763 22.6000
381 1 1.140  1.000 0.9069 1.1652 22.6000
382 1 1.432  1.000 0.8909 2.6977 22.6000
383 1 0.719  1.000 2.6672 -2.1397 22.6000
384 1 0.903  1.000 2.3189 -0.6890 22.6000
385 1 1.297  1.000 2.3017 0.7685 22.6000
386 1 1.100  1.000 2.5309 2.3858 22.6000
387 1 0.831  1.000 -2.0270 -2.1608 23.6000
388 1 1.070  1.000 -2.2398 -0.3281 23.6000
389 1 1.220  1.000 -1.9044 1.0216 23.6000
390 1 0.889  1.000 -2.1718 2.6664 23.6000
391 1 0.655  1.000 -0.3101 -1.9788 23.6000
392 1 0.783  1.000 -0.4466 -0.6901 23.6000
393 1 1.252  1.000 -0.3696 0.8054 23.6000
394 1 0.978  1.000 -0.7005 2.5357 23.6000
395 1 1.094  1.000 0.8037 -2.2401 23.6000
396 1 0.754  1.000 1.0049 -0.6533 23.6000
397 1 1.229  1.000 0.9344 0.8849 23.6000
398 1 1.014  1.000 1.0782 2.6601 23.6000
399 1 0.857  1.000 2.3654 -1.8983 23.6000
400 1 0.695  1.000 2.3974 -0.4741 23.6000
401 1 1.198  1.000 2.2857 1.2359 23.6000
402 1 1.290  1.000 2.6637 2.5253 23.6000
403 1 0.715  1.000 -2.1402 -2.0820 24.6000
404 1 0.989  1.000 -1.8135 -0.7444 24.6000
405 1 0.897  1.000 -2.1282 1.0725 24.6000
406 1 1.290  1.000 -2.1127 2.4531 24.6000
407 1 0.934  1.000 -0.5356 -1.9717 24.6000
408 1 0.915  1.000 -0.2978 -0.3321 24.6000
409 1 1.081  1.000 -0.6041 0.7872 24.6000
410 1 0.858  1.000 -0.4034 2.4429 24.6000
411 1 1.450  1.000 1.2329 -2.1971 24.6000
412 1 0.949  1.000 1.1786 -0.5751 24.6000
413 1 1.242  1.000 0.7894 1.1744 24.6000
414 1 0.927  1.000 1.0961 2.3269 24.6000
415 1 0.929  1.000 2.4042 -2.1410 24.6000
416 1 1.031  1.000 2.3463 -0.5976 24.6000
417 1 0.706  1.000 2.2704 1.1022 24.6000
418 1 1.139  1.000 2.3657 2.4520 24.6000
419 1 0.904  1.000 -2.0071 -1.7991 25.6000
420 1 0.851  1.000 -2.0031 -0.4705 25.6000
421 1 0.919  1.000 -2.2063 1.1404 25.6000
422 1 0.460  1.000 -2.2304 2.2860 25.6000
423 1 1.081  1.000 -0.6258 -1.8723 25.6000
424 1 1.152  1.000 -0.4802 -0.2595 25.6000
425 1 1.154  1.000 -0.7249 0.9435 25.6000
426 1 1.224  1.000 -0.6359 2.6119 25.6000
427 1 1.073  1.000 0.9732 -1.9293 25.6000
428 1 1.083  1.000 1.2089 -0.4545 25.6000
429 1 1.110  1.000 0.9838 1.0300 25.6000
430 1 0.917  1.000 1.1608 2.4949 25.6000
431 1 1.007  1.000 2.3428 -1.9391 25.6000
432 1 0.777  1.000 2.3735 -0.5419 25.6000
433 1 1.024  1.000 2.6323 0.7561 25.6000
434 1 0.938  1.000 2.2535 2.6199 25.6000
435 1 1.136  1.000 -2.0348 -2.2065 26.6000
436 1 1.120  1.000 -1.9918 -0.4141 26.6000
437 1 1.215  1.000 -2.2090 0.7639 26.6000
438 1 1.037  1.000 -2.0910 2.6341 26.6000
439 1 1.041  1.000 -0.2699 -2.0111 26.6000
440 1 0.866  1.000 -0.2994 -0.6403 26.6000
441 1 0.821  1.000 -0.7258 1.1010 26.6000
442 1 0.894  1.000 -0.5193 2.6673 26.6000
443 1 1.136  1.000 0.9680 -1.8787 26.6000
444 1 0.963  1.000 0.7625 -0.4674 26.6000
445 1 1.133  1.000 1.0436 0.8942 26.6000
446 1 1.004  1.000 1.2050 2.6172 26.6000
447 1 1.086  1.000 2.6129 -2.2169 26.6000
448 1 1.084  1.000 2.6622 -0.3335 26.6000
449 1 1.119  1.000 2.5195 1.2018 26.6000
450 1 0.920  1.000 2.7444 2.6347 26.6000
451 1 0.791  1.000 -2.2406 -1.8022 27.6000
452 1 0.889  1.000 -2.1614 -0.3646 27.6000
453 1 1.154  1.000 -1.8267 1.2430 27.6000
454 1 0.501  1.000 -1.8676 2.6051 27.6000
455 1 0.974  1.000 -0.7228 -1.8242 27.6000
456 1 0.940  1.000 -0.5823 -0.3225 27.6000
457 1 0.793  1.000 -0.6935 1.1721 27.6000
458 1 0.997  1.000 -0.4786 2.5790 27.6000
459 1 0.891  1.000 0.7638 -1.8691 27.6000
460 1 1.200  1.000 1.0636 -0.2957 27.6000
461 1 0.751  1.000 0.7939 0.9075 27.6000
462 1 0.953  1.000 0.9675 2.3518 27.6000
463 1 1.192  1.000 2.5972 -1.8407 27.6000
464 1 0.756  1.000 2.3007 -0.3629 27.6000
465 1 0.804  1.000 2.7278 0.9914 27.6000
466 1 1.280  1.000 2.5745 2.3448 27.6000
467 1 1.250  1.000 -1.7535 -1.9959 28.6000
468 1 0.695  1.000 -1.8160 -0.6784 28.6000
469 1 1.153  1.000 -1.9410 1.1043 28.6000
470 1 1.132  1.000 -2.1932 2.5223 28.6000
471 1 0.924  1.000 -0.4817 -1.7832 28.6000
472 1 0.993  1.000 -0.3995 -0.7293 28.6000
473 1 1.135  1.000 -0.4987 0.9836 28.6000
474 1 1.013  1.000 -0.4158 2.6263 28.6000
475 1 1.431  1.000 1.1639 -2.0125 28.6000
476 1 0.769  1.000 1.1654 -0.3613 28.6000
477 1 0.867  1.000 1.2146 1.0454 28.6000
478 1 1.127  1.000 0.9734 2.6724 28.6000
479 1 1.030  1.000 2.6938 -2.2302 28.6000
480 1 0.768  1.000 2.5070 -0.2613 28.6000
481 1 1.131  1.000 2.6078 0.9346 28.6000
482 1 0.817  1.000 2.5240 2.4766 28.6000
483 1 1.117  1.000 -2.1882 -1.9304 29.6000
484 1 1.373  1.000 -2.0475 -0.3853 29.6000
485 1 0.871  1.000 -2.1698 1.1565 29.6000
486 1 1.167  1.000 -1.9043 2.6021 29.6000
487 1 0.681  1.000 -0.3319 -1.9291 29.6000
488 1 1.103  1.000 -0.3094 -0.5643 29.6000
489 1 1.165  1.000 -0.3456 1.0286 29.6000
490 1 1.103  1.000 -0.7287 2.6119 29.6000
491 1 0.952  1.000 0.8474 -2.1202 29.6000
492 1 1.281  1.000 1.0532 -0.5415 29.6000
493 1 0.454  1.000 0.8215 1.0729 29.6000
494 1 0.711  1.000 0.7516 2.6748 29.6000
495 1 0.720  1.000 2.5302 -2.1394 29.6000
496 1 1.220  1.000 2.2954 -0.5880 29.6000
497 1 1.381  1.000 2.5091 0.9964 29.6000
498 1 1.218  1.000 2.5627 2.2799 29.6000
499 1 0.945  1.000 -2.1147 -2.1108 30.6000
500 1 0.921  1.000 -2.2293 -0.3641 30.6000
501 1 0.972  1.000 -1.7510 0.7885 30.6000
502 1 1.015  1.000 -2.2224 2.4879 30.6000
503 1 0.978  1.000 -0.5689 -1.8597 30.6000
504 1 0.978  1.000 -0.3309 -0.2985 30.6000
505 1 0.716  1.000 -0.3011 0.7909 30.6000
506 1 0.674  1.000 -0.6372 2.5723 30.6000
507 1 0.801  1.000 0.9337 -1.9653 30.6000
508 1 1.039  1.000 1.1791 -0.5207 30.6000
509 1 0.976  1.000 0.8503 1.1681 30.6000
510 1 1.053  1.000 0.9087 2.5442 30.6000
511 1 0.777  1.000 2.3368 -2.0664 30.6000
512 1 1.325  1.000 2.5191 -0.7007 30.6000
513 1 0.883  1.000 2.7259 0.9192 30.6000
514 1 0.964  1.000 2.3293 2.6990 30.6000
515 1 1.071  1.000 -2.1096 -2.0400 31.6000
516 1 0.937  1.000 -1.8285 -0.3368 31.6000
517 1 1.090  1.000 -2.2380 1.1803 31.6000
518 1 0.780  1.000 -1.9564 2.3757 31.6000
519 1 0.670  1.000 -0.3185 -1.8377 31.6000
520 1 0.969  1.000 -0.6602 -0.6710 31.6000
521 1 0.825  1.000 -0.7091 0.9843 31.6000
522 1 0.766  1.000 -0.6720 2.3359 31.6000
523 1 1.477  1.000 0.9163 -1.9182 31.6000
524 1 0.991  1.000 1.1777 -0.4892 31.6000
525 1 1.179  1.000 1.2062 1.1302 31.6000
526 1 0.878  1.000 0.9524 2.5129 31.6000
527 1 0.764  1.000 2.7013 -1.9170 31.6000
528 1 0.853  1.000 2.7498 -0.6295 31.6000
529 1 1.214  1.000 2.7303 0.9581 31.6000
530 1 1.105  1.000 2.2995 2.5788 31.6000
531 1 0.940  1.000 -1.7900 -2.2302 32.6000
532 1 0.845  1.000 -2.0556 -0.5696 32.6000
533 1 0.951  1.000 -2.2145 0.7521 32.6000
534 1 0.645  1.000 -1.7752 2.4720 32.6000
535 1 1.055  1.000 -0.2675 -1.8662 32.6000
536 1 0.732  1.000 -0.7485 -0.6970 32.6000
537 1 1.134  1.000 -0.7024 1.2069 32.6000
538 1 0.791  1.000 -0.5815 2.5988 32.6000
539 1 1.039  1.000 1.1547 -2.2356 32.6000
540 1 0.823  1.000 1.2036 -0.4449 32.6000
541 1 0.989  1.000 0.9683 0.7624 32.6000
542 1 1.057  1.000 0.7879 2.6946 32.6000
543 1 1.177  1.000 2.5433 -1.8905 32.6000
544 1 1.115  1.000 2.3487 -0.7451 32.6000
545 1 1.218  1.000 2.5273 1.2091 32.6000
546 1 0.868  1.000 2.3823 2.4454 32.6000
547 1 0.903  1.000 -1.8793 -1.9022 33.6000
548 1 0.595  1.000 -1.7812 -0.3604 33.6000
549 1 1.015  1.000 -1.8248 1.1897 33.6000
550 1 0.801  1.000 -2.1828 2.6381 33.6000
551 1 0.840  1.000 -0.3065 -1.8389 33.6000
552 1 1.034  1.000 -0.3767 -0.5305 33.6000
553 1 0.867  1.000 -0.5737 1.0990 33.6000
554 1 1.355  1.000 -0.3558 2.4699 33.6000
555 1 0.873  1.000 1.1507 -1.8841 33.6000
556 1 1.273  1.000 0.9036 -0.6138 33.6000
557 1 1.203  1.000 0.9409 1.0141 33.6000
558 1 1.220  1.000 1.0009 2.6508 33.6000
559 1 0.912  1.000 2.3501 -1.9656 33.6000
560 1 1.159  1.000 2.6231 -0.2987 33.6000
561 1 1.273  1.000 2.3816 1.1937 33.6000
562 1 1.039  1.000 2.4704 2.4355 33.6000
563 1 0.812  1.000 -2.1498 -1.9849 34.6000
564 1 1.157  1.000 -2.0499 -0.3722 34.6000
565 1 0.877  1.000 -2.1521 0.8648 34.6000
566 1 0.718  1.000 -2.0362 2.6472 34.6000
567 1 1.144  1.000 -0.4343 -1.9910 34.6000
568 1 1.722  1.000 -0.3260 -0.2753 34.6000
569 1 0.915  1.000 -0.3015 1.0339 34.6000
570 1 0.979  1.000 -0.7250 2.5967 34.6000
571 1 1.000  1.000 1.1166 -1.8461 34.6000
572 1 0.739  1.000 1.1169 -0.4326 34.6000
573 1 0.967  1.000 0.9985 1.0448 34.6000
574 1 0.853  1.000 0.9081 2.5732 34.6000
575 1 1.321  1.000 2.5115 -2.1819 34.6000
576 1 0.839  1.000 2.3075 -0.2895 34.6000
577 1 0.873  1.000 2.3856 1.2431 34.6000
578 1 0.915  1.000 2.3948 2.3052 34.6000
579 1 1.478  1.000 -1.8815 -2.1011 35.6000
580 1 0.947  1.000 -2.0843 -0.6504 35.6000
581 1 1.127  1.000 -1.7752 0.8714 35.6000
582 1 1.056  1.000 -1.8591 2.3042 35.6000
583 1 1.065  1.000 -0.2705 -1.9803 35.6000
584 1 0.761  1.000 -0.5091 -0.4338 35.6000
585 1 1.024  1.000 -0.3164 1.2214 35.6000
586 1 1.046  1.000 -0.4018 2.6301 35.6000
587 1 1.102  1.000 1.2222 -1.9155 35.6000
588 1 1.106  1.000 0.8159 -0.3781 35.6000
589 1 0.692  1.000 0.8138 0.8193 35.6000
590 1 1.029  1.000 1.0873 2.6809 35.6000
591 1 1.020  1.000 2.2647 -2.1952 35.6000
592 1 0.869  1.000 2.3879 -0.2807 35.6000
593 1 1.134  1.000 2.6757 1.1295 35.6000
594 1 1.249  1.000 2.5160 2.3057 35.6000
595 1 1.135  1.000 -2.0021 -2.1577 36.6000
596 1 0.866  1.000 -2.2402 -0.6001 36.6000
597 1 0.858  1.000 -1.8775 1.0332 36.6000
598 1 1.365  1.000 -1.9143 2.4380 36.6000
599 1 0.645  1.000 -0.6843 -1.9033 36.6000
600 1 1.116  1.000 -0.2967 -0.7118 36.6000
601 1 1.139  1.000 -0.5125 0.9500 36.6000
602 1 0.942  1.000 -0.7456 2.3781 36.6000
603 1 1.083  1.000 1.0754 -1.8369 36.6000
604 1 1.160  1.000 0.9314 -0.3440 36.6000
605 1 1.012  1.000 1.1435 1.1574 36.6000
606 1 0.787  1.000 0.8791 2.3906 36.6000
607 1 0.845  1.000 2.7443 -1.9891 36.6000
608 1 1.612  1.000 2.5515 -0.3387 36.6000
609 1 1.189  1.000 2.4612 0.9415 36.6000
610 1 1.075  1.000 2.7434 2.5426 36.6000
611 1 1.301  1.000 -2.0135 -1.9373 37.6000
612 1 1.070  1.000 -2.1214 -0.5611 37.6000
613 1 1.141  1.000 -1.9776 0.8261 37.6000
614 1 0.818  1.000 -1.9790 2.4665 37.6000
615 1 1.135  1.000 -0.5951 -1.8412 37.6000
616 1 0.869  1.000 -0.7282 -0.4209 37.6000
617 1 0.876  1.000 -0.5802 1.1759 37.6000
618 1 1.017  1.000 -0.6685 2.3771 37.6000
619 1 0.910  1.000 1.2041 -2.0658 37.6000
620 1 1.191  1.000 0.8530 -0.5095 37.6000
621 1 0.859  1.000 0.9276 1.0248 37.6000
622 1 0.962  1.000 1.0673 2.7500 37.6000
623 1 1.152  1.000 2.4294 -2.1740 37.6000
624 1 1.001  1.000 2.5078 -0.5150 37.6000
625 1 0.786  1.000 2.5570 1.1519 37.6000
626 1 1.083  1.000 2.4014 2.7061 37.6000
627 1 0.969  1.000 -2.0207 -1.8782 38.6000
628 1 0.950  1.000 -1.9417 -0.3425 38.6000
629 1 1.239  1.000 -1.7959 0.9859 38.6000
630 1 1.008  1.000 -1.9727 2.4989 38.6000
631 1 0.966  1.000 -0.6945 -1.8901 38.6000
632 1 0.858  1.000 -0.6221 -0.5823 38.6000
633 1 1.222  1.000 -0.4173 1.0271 38.6000
634 1 1.036  1.000 -0.3634 2.7453 38.6000
635 1 1.057  1.000 0.8014 -1.8575 38.6000
636 1 1.061  1.000 1.1704 -0.6833 38.6000
637 1 0.876  1.000 0.8922 1.0544 38.6000
638 1 0.898  1.000 1.0344 2.7338 38.6000
639 1 0.711  1.000 2.6775 -1.8163 38.6000
640 1 0.939  1.000 2.2892 -0.5151 38.6000
641 1 0.910  1.000 2.6550 1.1006 38.6000
642 1 0.578  1.000 2.2785 2.7224 38.6000
643 1 0.986  1.000 -2.0914 -1.8648 39.6000
644 1 0.798  1.000 -2.2376 -0.5634 39.6000
645 1 0.623  1.000 -1.8747 1.1218 39.6000
646 1 0.947  1.000 -2.0111 2.6771 39.6000
647 1 1.177  1.000 -0.4224 -2.2251 39.6000
648 1 0.887  1.000 -0.7499 -0.4308 39.6000
649 1 1.140  1.000 -0.3000 0.9477 39.6000
650 1 1.267  1.000 -0.7441 2.6582 39.6000
651 1 1.171  1.000 0.7782 -2.1595 39.6000
652 1 1.350  1.000 0.9005 -0.4816 39.6000
653 1 1.461  1.000 0.9613 0.9456 39.6000
654 1 1.056  1.000 0.9309 2.6843 39.6000
655 1 0.491  1.000 2.2949 -1.8036 39.6000
656 1 0.579  1.000 2.6329 -0.2529 39.6000
657 1 1.088  1.000 2.7176 0.9927 39.6000
658 1 0.766  1.000 2.4261 2.4688 39.6000
659 1 1.055  1.000 -2.0358 -2.0651 40.6000
660 1 0.867  1.000 -1.9562 -0.7330 40.6000
661 1 1.295  1.000 -2.0418 0.7922 40.6000
662 1 0.909  1.000 -2.0915 2.7426 40.6000
663 1 0.945  1.000 -0.6249 -2.0493 40.6000
664 1 0.849  1.000 -0.7151 -0.6957 40.6000
665 1 1.210  1.000 -0.3154 1.0681 40.6000
666 1 0.965  1.000 -0.3535 2.5354 40.6000
667 1 0.818  1.000 1.0364 -1.8170 40.6000
668 1 0.999  1.000 0.8799 -0.7300 40.6000
669 1 1.079  1.000 1.1477 1.2087 40.6000
670 1 1.118  1.000 1.0058 2.6607 40.6000
671 1 0.970  1.000 2.2822 -2.2010 40.6000
672 1 0.933  1.000 2.4990 -0.5578 40.6000
673 1 0.983  1.000 2.3206 1.2465 40.6000
674 1 1.255  1.000 2.6129 2.5694 40.6000
675 1 1.104  1.000 -2.0977 -1.7842 41.6000
676 1 1.108  1.000 -1.8549 -0.5349 41.6000
677 1 1.106  1.000 -2.1717 1.2127 41.6000
678 1 1.002  1.000 -1.8785 2.3432 41.6000
679 1 0.804  1.000 -0.4749 -1.9634 41.6000
680 1 1.041  1.000 -0.3199 -0.3303 41.6000
681 1 1.259  1.000 -0.3821 1.2313 41.6000
682 1 0.952  1.000 -0.6702 2.5237 41.6000
683 1 1.248  1.000 0.9159 -1.9231 41.6000
684 1 1.018  1.000 1.0448 -0.2638 41.6000
685 1 0.632  1.000 1.0407 0.7760 41.6000
686 1 1.259  1.000 0.8504 2.4428 41.6000
687 1 1.076  1.000 2.3503 -2.2354 41.6000
688 1 1.100  1.000 2.3519 -0.6142 41.6000
689 1 1.113  1.000 2.2755 1.1716 41.6000
690 1 1.026  1.000 2.3322 2.5223 41.6000
691 1 0.950  1.000 -2.0770 -1.8330 42.6000
692 1 1.024  1.000 -2.1773 -0.3309 42.6000
693 1 0.458  1.000 -1.8270 0.8551 42.6000
694 1 1.151  1.000 -1.9944 2.6337 42.6000
695 1 1.147  1.000 -0.6100 -2.0598 42.6000
696 1 1.004  1.000 -0.7357 -0.2840 42.6000
697 1 0.845  1.000 -0.4674 1.2436 42.6000
698 1 1.229  1.000 -0.7003 2.3493 42.6000
699 1 1.223  1.000 1.1458 -2.1168 42.6000
700 1 1.063  1.000 0.9141 -0.6120 42.6000
701 1 0.953  1.000 0.9363 1.2367 42.6000
702 1 0.987  1.000 1.1358 2.6789 42.6000
703 1 1.003  1.000 2.7184 -2.0174 42.6000
704 1 0.949  1.000 2.3415 -0.4664 42.6000
705 1 1.071  1.000 2.2878 1.0777 42.6000
706 1 1.034  1.000 2.6462 2.5181 42.6000
707 1 1.049  1.000 -1.9876 -1.8653 43.6000
708 1 0.705  1.000 -1.8892 -0.2809 43.6000
709 1 0.896  1.000 -2.0814 1.0830 43.6000
710 1 0.657  1.000 -1.7760 2.3188 43.6000
711 1 1.265  1.000 -0.4887 -1.8557 43.6000
712 1 1.043  1.000 -0.4430 -0.3777 43.6000
713 1 0.770  1.000 -0.2562 0.9771 43.6000
714 1 1.361  1.000 -0.3928 2.4136 43.6000