LAMMPS (2 Aug 2023 - Update 2)

###############################################
# The purpose of this script is to initialize condtions
# for spring and dashpot forces for particles in a box.

# This creates a periodic boundry on sides and shrink wrapped
# on sides then compresses that until an energy minimum is found.

# Output is a "restart" file with the that can be used to
# for other simulations and a movie showing the compression.

# The following variables will need to be
# passed through the command line to run the code:

#./lmp -var fric 1 -var AMP 0 -var FREQ 0.1 -var P 10 -in ./script.IC.read.compress

# All questions regarding this script send to c.kawamura@me.com
###############################################



###############################################
# ENVIRONMENT
###############################################
units 		lj			# "Units" definition is meaningless, only dimensionless numbers matter
atom_style	sphere		# "shere" is used for granular models
boundary	p p s		#(x y z); p= periodic on sides, shrink-wrapped on sides
newton		off 		# "off" turns off newton's third law, for savings in computation. If two interacting atoms are on two processors, both processors compute interaction and resulting force but not communicated.
comm_modify	vel yes		# "vel yes" communicates velocity info with ghost (atoms that lie within the cuttoff distance of periodic boundary)
neighbor	0.3 bin 	# Size of "skin" for neighbor lists

###############################################
# VARIABLES
###############################################
variable	PER equal 1/${FREQ}
variable	PER equal 1/0.1
variable	d_ave equal 1
variable	density equal 1
variable	PI equal 3.141592653589
variable	mass_particle equal ${density}*4/3*${PI}*(${d_ave}/2)^3
variable	mass_particle equal 1*4/3*${PI}*(${d_ave}/2)^3
variable	mass_particle equal 1*4/3*3.141592653589*(${d_ave}/2)^3
variable	mass_particle equal 1*4/3*3.141592653589*(1/2)^3
variable	e_n equal .10 #restiution coefficient
variable	kn equal 100
variable	meff equal ${mass_particle}^2/(2*${mass_particle}) #From J.Shafer, under equation 1
variable	meff equal 0.523598775598167^2/(2*${mass_particle}) 
variable	meff equal 0.523598775598167^2/(2*0.523598775598167) 
variable	t_n equal sqrt(${meff}/${kn}*(1/${PI}^2+(ln(${e_n}/${meff})^2)))
variable	t_n equal sqrt(0.261799387799084/${kn}*(1/${PI}^2+(ln(${e_n}/${meff})^2)))
variable	t_n equal sqrt(0.261799387799084/100*(1/${PI}^2+(ln(${e_n}/${meff})^2)))
variable	t_n equal sqrt(0.261799387799084/100*(1/3.141592653589^2+(ln(${e_n}/${meff})^2)))
variable	t_n equal sqrt(0.261799387799084/100*(1/3.141592653589^2+(ln(0.1/${meff})^2)))
variable	t_n equal sqrt(0.261799387799084/100*(1/3.141592653589^2+(ln(0.1/0.261799387799084)^2)))
variable	gamma_n equal -2*ln(${e_n})/${t_n}
variable	gamma_n equal -2*ln(0.1)/${t_n}
variable	gamma_n equal -2*ln(0.1)/0.0518663876043323
variable	xmu equal 0.01
variable	dampflag equal 1 #1 on, 0 off
variable    kt equal ${kn}*2/7
variable    kt equal 100*2/7
variable    gamma_t equal ${gamma_n}*0.5
variable    gamma_t equal 88.7891059836107*0.5
variable	tcol equal 2*${PI}/sqrt(2*${kn}/${meff})
variable	tcol equal 2*3.141592653589/sqrt(2*${kn}/${meff})
variable	tcol equal 2*3.141592653589/sqrt(2*100/${meff})
variable	tcol equal 2*3.141592653589/sqrt(2*100/0.261799387799084)
variable	dt equal ${tcol}*0.0001 # 1e-5
variable	dt equal 0.227326038544775*0.0001 
timestep 	${dt}
timestep 	2.27326038544775e-05
variable	time equal step*dt
variable	dimensionless_p equal ${P}*${d_ave}/${kn}
variable	dimensionless_p equal 10*${d_ave}/${kn}
variable	dimensionless_p equal 10*1/${kn}
variable	dimensionless_p equal 10*1/100

if "${fric} == 1" then 	"variable friction_status string Friction_ON" else 	"variable friction_status string Friction_OFF"
variable friction_status string Friction_ON

########### TIME STEPS TO DELAY FOR THE N^2 BUILD ################
neigh_modify	delay 100 every 100 check yes
neigh_modify	exclude type 2 2
neigh_modify	exclude type 3 3
neigh_modify	exclude type 2 3
#neigh_modify	delay 5

###############################################
# Read a data file of particle positions
###############################################
read_data	./data_ICN10000W7.granular
Reading data file ...
  orthogonal box = (-3.5 -3.5 -2) to (3.5 3.5 1890.1)
  1 by 1 by 1 MPI processor grid
  reading atoms ...
  10050 atoms
  read_data CPU = 0.015 seconds

###############################################
# GROUPS
###############################################
group		lower type 2
25 atoms in group lower
group		upper type 3
25 atoms in group upper
group		flow type 1
10000 atoms in group flow

###############################################
# PAIR STYLES
###############################################
if "${fric} == 1" then 	"pair_style gran/hooke/history ${kn} ${kt} ${gamma_n} ${gamma_t} ${xmu} ${dampflag}" else 	"pair_style	gran/hooke/history ${kn} ${kt} ${gamma_n} ${gamma_t} 0 ${dampflag}"
pair_style gran/hooke/history ${kn} ${kt} ${gamma_n} ${gamma_t} ${xmu} ${dampflag}
pair_style gran/hooke/history 100 ${kt} ${gamma_n} ${gamma_t} ${xmu} ${dampflag}
pair_style gran/hooke/history 100 28.5714285714286 ${gamma_n} ${gamma_t} ${xmu} ${dampflag}
pair_style gran/hooke/history 100 28.5714285714286 88.7891059836107 ${gamma_t} ${xmu} ${dampflag}
pair_style gran/hooke/history 100 28.5714285714286 88.7891059836107 44.3945529918053 ${xmu} ${dampflag}
pair_style gran/hooke/history 100 28.5714285714286 88.7891059836107 44.3945529918053 0.01 ${dampflag}
pair_style gran/hooke/history 100 28.5714285714286 88.7891059836107 44.3945529918053 0.01 1
pair_coeff	* *

###############################################
# COMPUTES
###############################################
compute 	mobile all erotate/sphere #Rotational KE of group of spherical particles, 1/2 Iw^2
compute 	t1 all temp/sphere #Rot AND Translational temp of group of sphere parts
compute 	1 flow group/group upper #Total energy and force interaction between flow and upper groups
compute 	2 upper group/group flow #Same as ^ but between opper and flow
compute 	myPress flow stress/atom NULL virial #Per-atom stress tensor for FLOW group
#compute 3 flow reduce ave c_myPress[*]
compute 	4 upper group/group flow # Total energy and force interaction between upper and flow
compute 	5 all temp

###############################################
# ON SCREEN INFORMATION
###############################################
fix extra all print 10005  	"""
****************************************************************************
*** Current Simulation is Initial Conditions PHASE I with parameters:
*** ${friction_status}
*** Pressure = ${P}
*** Dimensionless Pressure = ${dimensionless_p}
*** Vibration Amplitude = ${AMP}
*** Vibration Frequency = ${FREQ}
*** Time = ${time}
*** dt = ${dt}
*** kn = ${kn}
*** kt = ${kt}
*** gamma_n = ${gamma_n}
*** gamma_t = ${gamma_t}
****************************************************************************
"""

###############################################
# FIXES
###############################################
fix 		allow_flow_movement flow nve/sphere
fix 		allow_upper_movement upper move linear 0.0 0.0 NULL
fix			force_upper_movement upper aveforce 0.0 0.0 -10
fix 		wiggle_lower lower move wiggle 0 0 0 ${PER}
fix 		wiggle_lower lower move wiggle 0 0 0 10
fix 		apply_viscous all viscous 0.01

###############################################
# THERMODYNAMIC PARAMETERS
###############################################
thermo_style	custom step atoms ke vol
thermo			10000
thermo_modify 	temp t1
thermo_modify	lost ignore norm no
compute_modify	thermo_temp dynamic/dof yes

###############################################
# EXPERIMENTAL
###############################################
variable ke equal ke

###############################################
# OUTPUTS
###############################################
dump movie_system all movie 10000 ./movie.IC.${friction_status}.Pressure_${P}.mp4 type type zoom 2.0 adiam 1.5 size 1280 720
dump movie_system all movie 10000 ./movie.IC.Friction_ON.Pressure_${P}.mp4 type type zoom 2.0 adiam 1.5 size 1280 720
dump movie_system all movie 10000 ./movie.IC.Friction_ON.Pressure_10.mp4 type type zoom 2.0 adiam 1.5 size 1280 720
dump gif_system all movie 10000 ./movie.IC.${friction_status}.Pressure_${P}.gif type type zoom 2.0 adiam 1.5 size 1280 720
dump gif_system all movie 10000 ./movie.IC.Friction_ON.Pressure_${P}.gif type type zoom 2.0 adiam 1.5 size 1280 720
dump gif_system all movie 10000 ./movie.IC.Friction_ON.Pressure_10.gif type type zoom 2.0 adiam 1.5 size 1280 720

###############################################
# RUN
##############################################
variable ke equal ke
fix long_ave all ave/time 10 100 1000 v_ke ave window 5 #100,200,300,400...1000. Output on step 10K will be average of values on steps 5K , 6K,..., 10K
fix short_ave all ave/time 10 100 1000 v_ke

label 		loop
variable 	Loop_Count loop 10000
run 		10000
Generated 0 of 3 mixed pair_coeff terms from geometric mixing rule
Neighbor list info ...
  update: every = 100 steps, delay = 100 steps, check = yes
  max neighbors/atom: 2000, page size: 100000
  master list distance cutoff = 2.9
  ghost atom cutoff = 2.9
  binsize = 1.45, bins = 5 5 434
  4 neighbor lists, perpetual/occasional/extra = 1 3 0
  (1) pair gran/hooke/history, perpetual
      attributes: half, newton off, size, history
      pair build: half/size/bin/newtoff
      stencil: full/bin/3d
      bin: standard
  (2) compute group/group, occasional
      attributes: half, newton off
      pair build: half/bin/newtoff
      stencil: full/bin/3d
      bin: standard
  (3) compute group/group, occasional
      attributes: half, newton off
      pair build: half/bin/newtoff
      stencil: full/bin/3d
      bin: standard
  (4) compute group/group, occasional
      attributes: half, newton off
      pair build: half/bin/newtoff
      stencil: full/bin/3d
      bin: standard

****************************************************************************
*** Current Simulation is Initial Conditions PHASE I with parameters:
*** Friction_ON
*** Pressure = 10
*** Dimensionless Pressure = 0.1
*** Vibration Amplitude = 0
*** Vibration Frequency = 0.1
*** Time = 0
*** dt = 2.27326038544775e-05
*** kn = 100
*** kt = 28.5714285714286
*** gamma_n = 88.7891059836107
*** gamma_t = 44.3945529918053
****************************************************************************

Per MPI rank memory allocation (min/avg/max) = 25.67 | 25.67 | 25.67 Mbytes
   Step        Atoms        KinEng         Volume    
         0       10050   0              30819.947    
     10000       10050   229.22784      30798.507    
Loop time of 5.49261 on 1 procs for 10000 steps with 10050 atoms

Performance: 3575.888 tau/day, 1820.627 timesteps/s, 18.297 Matom-step/s
99.6% CPU use with 1 MPI tasks x no OpenMP threads

MPI task timing breakdown:
Section |  min time  |  avg time  |  max time  |%varavg| %total
---------------------------------------------------------------
Pair    | 2.0791     | 2.0791     | 2.0791     |   0.0 | 37.85
Neigh   | 0.024279   | 0.024279   | 0.024279   |   0.0 |  0.44
Comm    | 1.9239     | 1.9239     | 1.9239     |   0.0 | 35.03
Output  | 0.0084522  | 0.0084522  | 0.0084522  |   0.0 |  0.15
Modify  | 1.4286     | 1.4286     | 1.4286     |   0.0 | 26.01
Other   |            | 0.02815    |            |       |  0.51

Nlocal:          10050 ave       10050 max       10050 min
Histogram: 1 0 0 0 0 0 0 0 0 0
Nghost:          23559 ave       23559 max       23559 min
Histogram: 1 0 0 0 0 0 0 0 0 0
Neighs:          13120 ave       13120 max       13120 min
Histogram: 1 0 0 0 0 0 0 0 0 0

Total # of neighbors = 13120
Ave neighs/atom = 1.3054726
Neighbor list builds = 4
Dangerous builds = 0
variable diffke equal abs(f_long_ave-f_short_ave)
if "${diffke} <= 0.00000001" then "jump SELF break"
next Loop_Count
jump SELF loop
variable 	Loop_Count loop 10000
run 		10000
Generated 0 of 3 mixed pair_coeff terms from geometric mixing rule
Per MPI rank memory allocation (min/avg/max) = 27.32 | 27.32 | 27.32 Mbytes
   Step        Atoms        KinEng         Volume    
     10000       10050   229.22784      30794.832    

****************************************************************************
*** Current Simulation is Initial Conditions PHASE I with parameters:
*** Friction_ON
*** Pressure = 10
*** Dimensionless Pressure = 0.1
*** Vibration Amplitude = 0
*** Vibration Frequency = 0.1
*** Time = 0.227439701564047
*** dt = 2.27326038544775e-05
*** kn = 100
*** kt = 28.5714285714286
*** gamma_n = 88.7891059836107
*** gamma_t = 44.3945529918053
****************************************************************************

     20000       10050   256.58217      30753.307    
Loop time of 5.79658 on 1 procs for 10000 steps with 10050 atoms

Performance: 3388.370 tau/day, 1725.154 timesteps/s, 17.338 Matom-step/s
99.2% CPU use with 1 MPI tasks x no OpenMP threads

MPI task timing breakdown:
Section |  min time  |  avg time  |  max time  |%varavg| %total
---------------------------------------------------------------
Pair    | 2.3184     | 2.3184     | 2.3184     |   0.0 | 40.00
Neigh   | 0.038018   | 0.038018   | 0.038018   |   0.0 |  0.66
Comm    | 1.9439     | 1.9439     | 1.9439     |   0.0 | 33.54
Output  | 0.033759   | 0.033759   | 0.033759   |   0.0 |  0.58
Modify  | 1.434      | 1.434      | 1.434      |   0.0 | 24.74
Other   |            | 0.02856    |            |       |  0.49

Nlocal:          10050 ave       10050 max       10050 min
Histogram: 1 0 0 0 0 0 0 0 0 0
Nghost:          23620 ave       23620 max       23620 min
Histogram: 1 0 0 0 0 0 0 0 0 0
Neighs:          13392 ave       13392 max       13392 min
Histogram: 1 0 0 0 0 0 0 0 0 0

Total # of neighbors = 13392
Ave neighs/atom = 1.3325373
Neighbor list builds = 6
Dangerous builds = 0
variable diffke equal abs(f_long_ave-f_short_ave)
if "${diffke} <= 0.00000001" then "jump SELF break"
next Loop_Count
jump SELF loop
variable 	Loop_Count loop 10000
run 		10000
Generated 0 of 3 mixed pair_coeff terms from geometric mixing rule
Per MPI rank memory allocation (min/avg/max) = 27.32 | 27.32 | 27.32 Mbytes
   Step        Atoms        KinEng         Volume    
     20000       10050   256.58217      30751.864    

****************************************************************************
*** Current Simulation is Initial Conditions PHASE I with parameters:
*** Friction_ON
*** Pressure = 10
*** Dimensionless Pressure = 0.1
*** Vibration Amplitude = 0
*** Vibration Frequency = 0.1
*** Time = 0.454879403128095
*** dt = 2.27326038544775e-05
*** kn = 100
*** kt = 28.5714285714286
*** gamma_n = 88.7891059836107
*** gamma_t = 44.3945529918053
****************************************************************************

     30000       10050   360.87459      30703.846    
Loop time of 5.65987 on 1 procs for 10000 steps with 10050 atoms

Performance: 3470.214 tau/day, 1766.824 timesteps/s, 17.757 Matom-step/s
99.6% CPU use with 1 MPI tasks x no OpenMP threads

MPI task timing breakdown:
Section |  min time  |  avg time  |  max time  |%varavg| %total
---------------------------------------------------------------
Pair    | 2.1787     | 2.1787     | 2.1787     |   0.0 | 38.49
Neigh   | 0.052957   | 0.052957   | 0.052957   |   0.0 |  0.94
Comm    | 1.9472     | 1.9472     | 1.9472     |   0.0 | 34.40
Output  | 0.0083794  | 0.0083794  | 0.0083794  |   0.0 |  0.15
Modify  | 1.4435     | 1.4435     | 1.4435     |   0.0 | 25.50
Other   |            | 0.02918    |            |       |  0.52

Nlocal:          10050 ave       10050 max       10050 min
Histogram: 1 0 0 0 0 0 0 0 0 0
Nghost:          23635 ave       23635 max       23635 min
Histogram: 1 0 0 0 0 0 0 0 0 0
Neighs:          13616 ave       13616 max       13616 min
Histogram: 1 0 0 0 0 0 0 0 0 0

Total # of neighbors = 13616
Ave neighs/atom = 1.3548259
Neighbor list builds = 8
Dangerous builds = 0
variable diffke equal abs(f_long_ave-f_short_ave)
if "${diffke} <= 0.00000001" then "jump SELF break"
next Loop_Count
jump SELF loop
variable 	Loop_Count loop 10000
run 		10000
Generated 0 of 3 mixed pair_coeff terms from geometric mixing rule
Per MPI rank memory allocation (min/avg/max) = 27.33 | 27.33 | 27.33 Mbytes
   Step        Atoms        KinEng         Volume    
     30000       10050   360.87459      30702.337    

****************************************************************************
*** Current Simulation is Initial Conditions PHASE I with parameters:
*** Friction_ON
*** Pressure = 10
*** Dimensionless Pressure = 0.1
*** Vibration Amplitude = 0
*** Vibration Frequency = 0.1
*** Time = 0.682319104692142
*** dt = 2.27326038544775e-05
*** kn = 100
*** kt = 28.5714285714286
*** gamma_n = 88.7891059836107
*** gamma_t = 44.3945529918053
****************************************************************************

     40000       10050   458.99088      30653.678    
Loop time of 5.58054 on 1 procs for 10000 steps with 10050 atoms

Performance: 3519.546 tau/day, 1791.941 timesteps/s, 18.009 Matom-step/s
99.6% CPU use with 1 MPI tasks x no OpenMP threads

MPI task timing breakdown:
Section |  min time  |  avg time  |  max time  |%varavg| %total
---------------------------------------------------------------
Pair    | 2.0885     | 2.0885     | 2.0885     |   0.0 | 37.42
Neigh   | 0.054489   | 0.054489   | 0.054489   |   0.0 |  0.98
Comm    | 1.9526     | 1.9526     | 1.9526     |   0.0 | 34.99
Output  | 0.0073199  | 0.0073199  | 0.0073199  |   0.0 |  0.13
Modify  | 1.4483     | 1.4483     | 1.4483     |   0.0 | 25.95
Other   |            | 0.02934    |            |       |  0.53

Nlocal:          10050 ave       10050 max       10050 min
Histogram: 1 0 0 0 0 0 0 0 0 0
Nghost:          23663 ave       23663 max       23663 min
Histogram: 1 0 0 0 0 0 0 0 0 0
Neighs:          13822 ave       13822 max       13822 min
Histogram: 1 0 0 0 0 0 0 0 0 0

Total # of neighbors = 13822
Ave neighs/atom = 1.3753234
Neighbor list builds = 8
Dangerous builds = 0
variable diffke equal abs(f_long_ave-f_short_ave)
if "${diffke} <= 0.00000001" then "jump SELF break"
next Loop_Count
jump SELF loop
variable 	Loop_Count loop 10000
run 		10000
Generated 0 of 3 mixed pair_coeff terms from geometric mixing rule
Per MPI rank memory allocation (min/avg/max) = 27.33 | 27.33 | 27.33 Mbytes
   Step        Atoms        KinEng         Volume    
     40000       10050   458.99088      30651.698    

****************************************************************************
*** Current Simulation is Initial Conditions PHASE I with parameters:
*** Friction_ON
*** Pressure = 10
*** Dimensionless Pressure = 0.1
*** Vibration Amplitude = 0
*** Vibration Frequency = 0.1
*** Time = 0.90975880625619
*** dt = 2.27326038544775e-05
*** kn = 100
*** kt = 28.5714285714286
*** gamma_n = 88.7891059836107
*** gamma_t = 44.3945529918053
****************************************************************************

     50000       10050   565.63005      30606.812    
Loop time of 5.49079 on 1 procs for 10000 steps with 10050 atoms

Performance: 3577.075 tau/day, 1821.232 timesteps/s, 18.303 Matom-step/s
99.8% CPU use with 1 MPI tasks x no OpenMP threads

MPI task timing breakdown:
Section |  min time  |  avg time  |  max time  |%varavg| %total
---------------------------------------------------------------
Pair    | 2.0261     | 2.0261     | 2.0261     |   0.0 | 36.90
Neigh   | 0.048454   | 0.048454   | 0.048454   |   0.0 |  0.88
Comm    | 1.9416     | 1.9416     | 1.9416     |   0.0 | 35.36
Output  | 0.0074247  | 0.0074247  | 0.0074247  |   0.0 |  0.14
Modify  | 1.4391     | 1.4391     | 1.4391     |   0.0 | 26.21
Other   |            | 0.02811    |            |       |  0.51

Nlocal:          10050 ave       10050 max       10050 min
Histogram: 1 0 0 0 0 0 0 0 0 0
Nghost:          23673 ave       23673 max       23673 min
Histogram: 1 0 0 0 0 0 0 0 0 0
Neighs:          14032 ave       14032 max       14032 min
Histogram: 1 0 0 0 0 0 0 0 0 0

Total # of neighbors = 14032
Ave neighs/atom = 1.3962189
Neighbor list builds = 7
Dangerous builds = 0
variable diffke equal abs(f_long_ave-f_short_ave)
if "${diffke} <= 0.00000001" then "jump SELF break"
next Loop_Count
jump SELF loop
variable 	Loop_Count loop 10000
run 		10000
Generated 0 of 3 mixed pair_coeff terms from geometric mixing rule
Per MPI rank memory allocation (min/avg/max) = 27.33 | 27.33 | 27.33 Mbytes
   Step        Atoms        KinEng         Volume    
     50000       10050   565.63005      30602.343    

****************************************************************************
*** Current Simulation is Initial Conditions PHASE I with parameters:
*** Friction_ON
*** Pressure = 10
*** Dimensionless Pressure = 0.1
*** Vibration Amplitude = 0
*** Vibration Frequency = 0.1
*** Time = 1.13719850782024
*** dt = 2.27326038544775e-05
*** kn = 100
*** kt = 28.5714285714286
*** gamma_n = 88.7891059836107
*** gamma_t = 44.3945529918053
****************************************************************************

     60000       10050   675.59998      30559.154    
Loop time of 5.42823 on 1 procs for 10000 steps with 10050 atoms

Performance: 3618.300 tau/day, 1842.221 timesteps/s, 18.514 Matom-step/s
99.8% CPU use with 1 MPI tasks x no OpenMP threads

MPI task timing breakdown:
Section |  min time  |  avg time  |  max time  |%varavg| %total
---------------------------------------------------------------
Pair    | 1.9773     | 1.9773     | 1.9773     |   0.0 | 36.43
Neigh   | 0.048751   | 0.048751   | 0.048751   |   0.0 |  0.90
Comm    | 1.9354     | 1.9354     | 1.9354     |   0.0 | 35.65
Output  | 0.0076374  | 0.0076374  | 0.0076374  |   0.0 |  0.14
Modify  | 1.4311     | 1.4311     | 1.4311     |   0.0 | 26.36
Other   |            | 0.02807    |            |       |  0.52

Nlocal:          10050 ave       10050 max       10050 min
Histogram: 1 0 0 0 0 0 0 0 0 0
Nghost:          23687 ave       23687 max       23687 min
Histogram: 1 0 0 0 0 0 0 0 0 0
Neighs:          14199 ave       14199 max       14199 min
Histogram: 1 0 0 0 0 0 0 0 0 0

Total # of neighbors = 14199
Ave neighs/atom = 1.4128358
Neighbor list builds = 7
Dangerous builds = 0
variable diffke equal abs(f_long_ave-f_short_ave)
if "${diffke} <= 0.00000001" then "jump SELF break"
next Loop_Count
jump SELF loop
variable 	Loop_Count loop 10000
run 		10000
Generated 0 of 3 mixed pair_coeff terms from geometric mixing rule
Per MPI rank memory allocation (min/avg/max) = 27.33 | 27.33 | 27.33 Mbytes
   Step        Atoms        KinEng         Volume    
     60000       10050   675.59998      30554.936    

****************************************************************************
*** Current Simulation is Initial Conditions PHASE I with parameters:
*** Friction_ON
*** Pressure = 10
*** Dimensionless Pressure = 0.1
*** Vibration Amplitude = 0
*** Vibration Frequency = 0.1
*** Time = 1.36463820938428
*** dt = 2.27326038544775e-05
*** kn = 100
*** kt = 28.5714285714286
*** gamma_n = 88.7891059836107
*** gamma_t = 44.3945529918053
****************************************************************************

     70000       10050   791.82324      30508.982    
Loop time of 5.4114 on 1 procs for 10000 steps with 10050 atoms

Performance: 3629.556 tau/day, 1847.951 timesteps/s, 18.572 Matom-step/s
99.8% CPU use with 1 MPI tasks x no OpenMP threads

MPI task timing breakdown:
Section |  min time  |  avg time  |  max time  |%varavg| %total
---------------------------------------------------------------
Pair    | 1.9506     | 1.9506     | 1.9506     |   0.0 | 36.05
Neigh   | 0.049585   | 0.049585   | 0.049585   |   0.0 |  0.92
Comm    | 1.9403     | 1.9403     | 1.9403     |   0.0 | 35.86
Output  | 0.0073868  | 0.0073868  | 0.0073868  |   0.0 |  0.14
Modify  | 1.4353     | 1.4353     | 1.4353     |   0.0 | 26.52
Other   |            | 0.02823    |            |       |  0.52

Nlocal:          10050 ave       10050 max       10050 min
Histogram: 1 0 0 0 0 0 0 0 0 0
Nghost:          23708 ave       23708 max       23708 min
Histogram: 1 0 0 0 0 0 0 0 0 0
Neighs:          14382 ave       14382 max       14382 min
Histogram: 1 0 0 0 0 0 0 0 0 0

Total # of neighbors = 14382
Ave neighs/atom = 1.4310448
Neighbor list builds = 7
Dangerous builds = 0
variable diffke equal abs(f_long_ave-f_short_ave)
if "${diffke} <= 0.00000001" then "jump SELF break"
next Loop_Count
jump SELF loop
variable 	Loop_Count loop 10000
run 		10000
Generated 0 of 3 mixed pair_coeff terms from geometric mixing rule
Per MPI rank memory allocation (min/avg/max) = 27.33 | 27.33 | 27.33 Mbytes
   Step        Atoms        KinEng         Volume    
     70000       10050   791.82324      30508.055    

****************************************************************************
*** Current Simulation is Initial Conditions PHASE I with parameters:
*** Friction_ON
*** Pressure = 10
*** Dimensionless Pressure = 0.1
*** Vibration Amplitude = 0
*** Vibration Frequency = 0.1
*** Time = 1.59207791094833
*** dt = 2.27326038544775e-05
*** kn = 100
*** kt = 28.5714285714286
*** gamma_n = 88.7891059836107
*** gamma_t = 44.3945529918053
****************************************************************************

     80000       10050   912.49049      30462.216    
Loop time of 5.5419 on 1 procs for 10000 steps with 10050 atoms

Performance: 3544.083 tau/day, 1804.434 timesteps/s, 18.135 Matom-step/s
99.1% CPU use with 1 MPI tasks x no OpenMP threads

MPI task timing breakdown:
Section |  min time  |  avg time  |  max time  |%varavg| %total
---------------------------------------------------------------
Pair    | 2.0035     | 2.0035     | 2.0035     |   0.0 | 36.15
Neigh   | 0.049975   | 0.049975   | 0.049975   |   0.0 |  0.90
Comm    | 1.9813     | 1.9813     | 1.9813     |   0.0 | 35.75
Output  | 0.0077407  | 0.0077407  | 0.0077407  |   0.0 |  0.14
Modify  | 1.4695     | 1.4695     | 1.4695     |   0.0 | 26.52
Other   |            | 0.02979    |            |       |  0.54

Nlocal:          10050 ave       10050 max       10050 min
Histogram: 1 0 0 0 0 0 0 0 0 0
Nghost:          23706 ave       23706 max       23706 min
Histogram: 1 0 0 0 0 0 0 0 0 0
Neighs:          14497 ave       14497 max       14497 min
Histogram: 1 0 0 0 0 0 0 0 0 0

Total # of neighbors = 14497
Ave neighs/atom = 1.4424876
Neighbor list builds = 7
Dangerous builds = 0
variable diffke equal abs(f_long_ave-f_short_ave)
if "${diffke} <= 0.00000001" then "jump SELF break"
next Loop_Count
jump SELF loop
variable 	Loop_Count loop 10000
run 		10000
Generated 0 of 3 mixed pair_coeff terms from geometric mixing rule
Per MPI rank memory allocation (min/avg/max) = 27.33 | 27.33 | 27.33 Mbytes
   Step        Atoms        KinEng         Volume    
     80000       10050   912.49049      30460.787    

****************************************************************************
*** Current Simulation is Initial Conditions PHASE I with parameters:
*** Friction_ON
*** Pressure = 10
*** Dimensionless Pressure = 0.1
*** Vibration Amplitude = 0
*** Vibration Frequency = 0.1
*** Time = 1.81951761251238
*** dt = 2.27326038544775e-05
*** kn = 100
*** kt = 28.5714285714286
*** gamma_n = 88.7891059836107
*** gamma_t = 44.3945529918053
****************************************************************************

     90000       10050   1055.5649      30413.683    
Loop time of 5.45917 on 1 procs for 10000 steps with 10050 atoms

Performance: 3597.797 tau/day, 1831.782 timesteps/s, 18.409 Matom-step/s
99.3% CPU use with 1 MPI tasks x no OpenMP threads

MPI task timing breakdown:
Section |  min time  |  avg time  |  max time  |%varavg| %total
---------------------------------------------------------------
Pair    | 1.9375     | 1.9375     | 1.9375     |   0.0 | 35.49
Neigh   | 0.05088    | 0.05088    | 0.05088    |   0.0 |  0.93
Comm    | 1.9754     | 1.9754     | 1.9754     |   0.0 | 36.18
Output  | 0.0076937  | 0.0076937  | 0.0076937  |   0.0 |  0.14
Modify  | 1.4586     | 1.4586     | 1.4586     |   0.0 | 26.72
Other   |            | 0.02917    |            |       |  0.53

Nlocal:          10050 ave       10050 max       10050 min
Histogram: 1 0 0 0 0 0 0 0 0 0
Nghost:          23685 ave       23685 max       23685 min
Histogram: 1 0 0 0 0 0 0 0 0 0
Neighs:          14623 ave       14623 max       14623 min
Histogram: 1 0 0 0 0 0 0 0 0 0

Total # of neighbors = 14623
Ave neighs/atom = 1.4550249
Neighbor list builds = 7
Dangerous builds = 0
variable diffke equal abs(f_long_ave-f_short_ave)
if "${diffke} <= 0.00000001" then "jump SELF break"
next Loop_Count
jump SELF loop
variable 	Loop_Count loop 10000
run 		10000
Generated 0 of 3 mixed pair_coeff terms from geometric mixing rule
Per MPI rank memory allocation (min/avg/max) = 27.33 | 27.33 | 27.33 Mbytes
   Step        Atoms        KinEng         Volume    
     90000       10050   1055.5649      30413.2      

****************************************************************************
*** Current Simulation is Initial Conditions PHASE I with parameters:
*** Friction_ON
*** Pressure = 10
*** Dimensionless Pressure = 0.1
*** Vibration Amplitude = 0
*** Vibration Frequency = 0.1
*** Time = 2.04695731407643
*** dt = 2.27326038544775e-05
*** kn = 100
*** kt = 28.5714285714286
*** gamma_n = 88.7891059836107
*** gamma_t = 44.3945529918053
****************************************************************************

    100000       10050   1198.2014      30367.368    
Loop time of 5.35521 on 1 procs for 10000 steps with 10050 atoms

Performance: 3667.636 tau/day, 1867.339 timesteps/s, 18.767 Matom-step/s
99.7% CPU use with 1 MPI tasks x no OpenMP threads

MPI task timing breakdown:
Section |  min time  |  avg time  |  max time  |%varavg| %total
---------------------------------------------------------------
Pair    | 1.867      | 1.867      | 1.867      |   0.0 | 34.86
Neigh   | 0.05113    | 0.05113    | 0.05113    |   0.0 |  0.95
Comm    | 1.9536     | 1.9536     | 1.9536     |   0.0 | 36.48
Output  | 0.0085311  | 0.0085311  | 0.0085311  |   0.0 |  0.16
Modify  | 1.4463     | 1.4463     | 1.4463     |   0.0 | 27.01
Other   |            | 0.02866    |            |       |  0.54

Nlocal:          10050 ave       10050 max       10050 min
Histogram: 1 0 0 0 0 0 0 0 0 0
Nghost:          23672 ave       23672 max       23672 min
Histogram: 1 0 0 0 0 0 0 0 0 0
Neighs:          14717 ave       14717 max       14717 min
Histogram: 1 0 0 0 0 0 0 0 0 0

Total # of neighbors = 14717
Ave neighs/atom = 1.4643781
Neighbor list builds = 7
Dangerous builds = 0
variable diffke equal abs(f_long_ave-f_short_ave)
if "${diffke} <= 0.00000001" then "jump SELF break"
next Loop_Count
jump SELF loop
variable 	Loop_Count loop 10000
run 		10000
Generated 0 of 3 mixed pair_coeff terms from geometric mixing rule
Per MPI rank memory allocation (min/avg/max) = 27.33 | 27.33 | 27.33 Mbytes
   Step        Atoms        KinEng         Volume    
    100000       10050   1198.2014      30363.867    

****************************************************************************
*** Current Simulation is Initial Conditions PHASE I with parameters:
*** Friction_ON
*** Pressure = 10
*** Dimensionless Pressure = 0.1
*** Vibration Amplitude = 0
*** Vibration Frequency = 0.1
*** Time = 2.27439701564047
*** dt = 2.27326038544775e-05
*** kn = 100
*** kt = 28.5714285714286
*** gamma_n = 88.7891059836107
*** gamma_t = 44.3945529918053
****************************************************************************

    110000       10050   1320.1215      30317.166    
Loop time of 5.33585 on 1 procs for 10000 steps with 10050 atoms

Performance: 3680.943 tau/day, 1874.114 timesteps/s, 18.835 Matom-step/s
99.7% CPU use with 1 MPI tasks x no OpenMP threads

MPI task timing breakdown:
Section |  min time  |  avg time  |  max time  |%varavg| %total
---------------------------------------------------------------
Pair    | 1.8415     | 1.8415     | 1.8415     |   0.0 | 34.51
Neigh   | 0.05156    | 0.05156    | 0.05156    |   0.0 |  0.97
Comm    | 1.9575     | 1.9575     | 1.9575     |   0.0 | 36.69
Output  | 0.0072951  | 0.0072951  | 0.0072951  |   0.0 |  0.14
Modify  | 1.4494     | 1.4494     | 1.4494     |   0.0 | 27.16
Other   |            | 0.02863    |            |       |  0.54

Nlocal:          10050 ave       10050 max       10050 min
Histogram: 1 0 0 0 0 0 0 0 0 0
Nghost:          23649 ave       23649 max       23649 min
Histogram: 1 0 0 0 0 0 0 0 0 0
Neighs:          14861 ave       14861 max       14861 min
Histogram: 1 0 0 0 0 0 0 0 0 0

Total # of neighbors = 14861
Ave neighs/atom = 1.4787065
Neighbor list builds = 7
Dangerous builds = 0
variable diffke equal abs(f_long_ave-f_short_ave)
if "${diffke} <= 0.00000001" then "jump SELF break"
next Loop_Count
jump SELF loop
variable 	Loop_Count loop 10000
run 		10000
Generated 0 of 3 mixed pair_coeff terms from geometric mixing rule
Per MPI rank memory allocation (min/avg/max) = 27.33 | 27.33 | 27.33 Mbytes
   Step        Atoms        KinEng         Volume    
    110000       10050   1320.1215      30313.619    

****************************************************************************
*** Current Simulation is Initial Conditions PHASE I with parameters:
*** Friction_ON
*** Pressure = 10
*** Dimensionless Pressure = 0.1
*** Vibration Amplitude = 0
*** Vibration Frequency = 0.1
*** Time = 2.50183671720452
*** dt = 2.27326038544775e-05
*** kn = 100
*** kt = 28.5714285714286
*** gamma_n = 88.7891059836107
*** gamma_t = 44.3945529918053
****************************************************************************

    120000       10050   1435.1184      30267.169    
Loop time of 5.2697 on 1 procs for 10000 steps with 10050 atoms

Performance: 3727.154 tau/day, 1897.643 timesteps/s, 19.071 Matom-step/s
99.7% CPU use with 1 MPI tasks x no OpenMP threads

MPI task timing breakdown:
Section |  min time  |  avg time  |  max time  |%varavg| %total
---------------------------------------------------------------
Pair    | 1.7837     | 1.7837     | 1.7837     |   0.0 | 33.85
Neigh   | 0.05223    | 0.05223    | 0.05223    |   0.0 |  0.99
Comm    | 1.9519     | 1.9519     | 1.9519     |   0.0 | 37.04
Output  | 0.007519   | 0.007519   | 0.007519   |   0.0 |  0.14
Modify  | 1.446      | 1.446      | 1.446      |   0.0 | 27.44
Other   |            | 0.02835    |            |       |  0.54

Nlocal:          10050 ave       10050 max       10050 min
Histogram: 1 0 0 0 0 0 0 0 0 0
Nghost:          23618 ave       23618 max       23618 min
Histogram: 1 0 0 0 0 0 0 0 0 0
Neighs:          15024 ave       15024 max       15024 min
Histogram: 1 0 0 0 0 0 0 0 0 0

Total # of neighbors = 15024
Ave neighs/atom = 1.4949254
Neighbor list builds = 7
Dangerous builds = 0
variable diffke equal abs(f_long_ave-f_short_ave)
if "${diffke} <= 0.00000001" then "jump SELF break"
next Loop_Count
jump SELF loop
variable 	Loop_Count loop 10000
run 		10000
Generated 0 of 3 mixed pair_coeff terms from geometric mixing rule
Per MPI rank memory allocation (min/avg/max) = 27.33 | 27.33 | 27.33 Mbytes
   Step        Atoms        KinEng         Volume    
    120000       10050   1435.1184      30263.141    

****************************************************************************
*** Current Simulation is Initial Conditions PHASE I with parameters:
*** Friction_ON
*** Pressure = 10
*** Dimensionless Pressure = 0.1
*** Vibration Amplitude = 0
*** Vibration Frequency = 0.1
*** Time = 2.72927641876857
*** dt = 2.27326038544775e-05
*** kn = 100
*** kt = 28.5714285714286
*** gamma_n = 88.7891059836107
*** gamma_t = 44.3945529918053
****************************************************************************

    130000       10050   1532.5338      30218.05     
Loop time of 5.2404 on 1 procs for 10000 steps with 10050 atoms

Performance: 3747.989 tau/day, 1908.251 timesteps/s, 19.178 Matom-step/s
99.7% CPU use with 1 MPI tasks x no OpenMP threads

MPI task timing breakdown:
Section |  min time  |  avg time  |  max time  |%varavg| %total
---------------------------------------------------------------
Pair    | 1.7521     | 1.7521     | 1.7521     |   0.0 | 33.43
Neigh   | 0.052508   | 0.052508   | 0.052508   |   0.0 |  1.00
Comm    | 1.9515     | 1.9515     | 1.9515     |   0.0 | 37.24
Output  | 0.0075655  | 0.0075655  | 0.0075655  |   0.0 |  0.14
Modify  | 1.4484     | 1.4484     | 1.4484     |   0.0 | 27.64
Other   |            | 0.02832    |            |       |  0.54

Nlocal:          10050 ave       10050 max       10050 min
Histogram: 1 0 0 0 0 0 0 0 0 0
Nghost:          23605 ave       23605 max       23605 min
Histogram: 1 0 0 0 0 0 0 0 0 0
Neighs:          15116 ave       15116 max       15116 min
Histogram: 1 0 0 0 0 0 0 0 0 0

Total # of neighbors = 15116
Ave neighs/atom = 1.5040796
Neighbor list builds = 7
Dangerous builds = 0
variable diffke equal abs(f_long_ave-f_short_ave)
if "${diffke} <= 0.00000001" then "jump SELF break"
next Loop_Count
jump SELF loop
variable 	Loop_Count loop 10000
run 		10000
Generated 0 of 3 mixed pair_coeff terms from geometric mixing rule
Per MPI rank memory allocation (min/avg/max) = 27.33 | 27.33 | 27.33 Mbytes
   Step        Atoms        KinEng         Volume    
    130000       10050   1532.5338      30213.112    

****************************************************************************
*** Current Simulation is Initial Conditions PHASE I with parameters:
*** Friction_ON
*** Pressure = 10
*** Dimensionless Pressure = 0.1
*** Vibration Amplitude = 0
*** Vibration Frequency = 0.1
*** Time = 2.95671612033262
*** dt = 2.27326038544775e-05
*** kn = 100
*** kt = 28.5714285714286
*** gamma_n = 88.7891059836107
*** gamma_t = 44.3945529918053
****************************************************************************

    140000       10050   1671.0298      30168.981    
Loop time of 5.19798 on 1 procs for 10000 steps with 10050 atoms

Performance: 3778.581 tau/day, 1923.826 timesteps/s, 19.334 Matom-step/s
99.7% CPU use with 1 MPI tasks x no OpenMP threads

MPI task timing breakdown:
Section |  min time  |  avg time  |  max time  |%varavg| %total
---------------------------------------------------------------
Pair    | 1.7134     | 1.7134     | 1.7134     |   0.0 | 32.96
Neigh   | 0.052664   | 0.052664   | 0.052664   |   0.0 |  1.01
Comm    | 1.9483     | 1.9483     | 1.9483     |   0.0 | 37.48
Output  | 0.0073531  | 0.0073531  | 0.0073531  |   0.0 |  0.14
Modify  | 1.4481     | 1.4481     | 1.4481     |   0.0 | 27.86
Other   |            | 0.02823    |            |       |  0.54

Nlocal:          10050 ave       10050 max       10050 min
Histogram: 1 0 0 0 0 0 0 0 0 0
Nghost:          23582 ave       23582 max       23582 min
Histogram: 1 0 0 0 0 0 0 0 0 0
Neighs:          15235 ave       15235 max       15235 min
Histogram: 1 0 0 0 0 0 0 0 0 0

Total # of neighbors = 15235
Ave neighs/atom = 1.5159204
Neighbor list builds = 7
Dangerous builds = 0
variable diffke equal abs(f_long_ave-f_short_ave)
if "${diffke} <= 0.00000001" then "jump SELF break"
next Loop_Count
jump SELF loop
variable 	Loop_Count loop 10000
run 		10000
Generated 0 of 3 mixed pair_coeff terms from geometric mixing rule
Per MPI rank memory allocation (min/avg/max) = 27.33 | 27.33 | 27.33 Mbytes
   Step        Atoms        KinEng         Volume    
    140000       10050   1671.0298      30164.064    

****************************************************************************
*** Current Simulation is Initial Conditions PHASE I with parameters:
*** Friction_ON
*** Pressure = 10
*** Dimensionless Pressure = 0.1
*** Vibration Amplitude = 0
*** Vibration Frequency = 0.1
*** Time = 3.18415582189666
*** dt = 2.27326038544775e-05
*** kn = 100
*** kt = 28.5714285714286
*** gamma_n = 88.7891059836107
*** gamma_t = 44.3945529918053
****************************************************************************

    150000       10050   1780.871       30118.014    
Loop time of 5.15894 on 1 procs for 10000 steps with 10050 atoms

Performance: 3807.172 tau/day, 1938.383 timesteps/s, 19.481 Matom-step/s
99.8% CPU use with 1 MPI tasks x no OpenMP threads

MPI task timing breakdown:
Section |  min time  |  avg time  |  max time  |%varavg| %total
---------------------------------------------------------------
Pair    | 1.6738     | 1.6738     | 1.6738     |   0.0 | 32.44
Neigh   | 0.053312   | 0.053312   | 0.053312   |   0.0 |  1.03
Comm    | 1.9476     | 1.9476     | 1.9476     |   0.0 | 37.75
Output  | 0.0074399  | 0.0074399  | 0.0074399  |   0.0 |  0.14
Modify  | 1.4485     | 1.4485     | 1.4485     |   0.0 | 28.08
Other   |            | 0.02835    |            |       |  0.55

Nlocal:          10050 ave       10050 max       10050 min
Histogram: 1 0 0 0 0 0 0 0 0 0
Nghost:          23562 ave       23562 max       23562 min
Histogram: 1 0 0 0 0 0 0 0 0 0
Neighs:          15413 ave       15413 max       15413 min
Histogram: 1 0 0 0 0 0 0 0 0 0

Total # of neighbors = 15413
Ave neighs/atom = 1.5336318
Neighbor list builds = 7
Dangerous builds = 0
variable diffke equal abs(f_long_ave-f_short_ave)
if "${diffke} <= 0.00000001" then "jump SELF break"
next Loop_Count
jump SELF loop
variable 	Loop_Count loop 10000
run 		10000
Generated 0 of 3 mixed pair_coeff terms from geometric mixing rule
Per MPI rank memory allocation (min/avg/max) = 27.33 | 27.33 | 27.33 Mbytes
   Step        Atoms        KinEng         Volume    
    150000       10050   1780.871       30114.532    

****************************************************************************
*** Current Simulation is Initial Conditions PHASE I with parameters:
*** Friction_ON
*** Pressure = 10
*** Dimensionless Pressure = 0.1
*** Vibration Amplitude = 0
*** Vibration Frequency = 0.1
*** Time = 3.41159552346071
*** dt = 2.27326038544775e-05
*** kn = 100
*** kt = 28.5714285714286
*** gamma_n = 88.7891059836107
*** gamma_t = 44.3945529918053
****************************************************************************

    160000       10050   1899.4944      30069.313    
Loop time of 5.14484 on 1 procs for 10000 steps with 10050 atoms

Performance: 3817.604 tau/day, 1943.694 timesteps/s, 19.534 Matom-step/s
99.7% CPU use with 1 MPI tasks x no OpenMP threads

MPI task timing breakdown:
Section |  min time  |  avg time  |  max time  |%varavg| %total
---------------------------------------------------------------
Pair    | 1.6575     | 1.6575     | 1.6575     |   0.0 | 32.22
Neigh   | 0.053624   | 0.053624   | 0.053624   |   0.0 |  1.04
Comm    | 1.9469     | 1.9469     | 1.9469     |   0.0 | 37.84
Output  | 0.0076733  | 0.0076733  | 0.0076733  |   0.0 |  0.15
Modify  | 1.4507     | 1.4507     | 1.4507     |   0.0 | 28.20
Other   |            | 0.02845    |            |       |  0.55

Nlocal:          10050 ave       10050 max       10050 min
Histogram: 1 0 0 0 0 0 0 0 0 0
Nghost:          23558 ave       23558 max       23558 min
Histogram: 1 0 0 0 0 0 0 0 0 0
Neighs:          15546 ave       15546 max       15546 min
Histogram: 1 0 0 0 0 0 0 0 0 0

Total # of neighbors = 15546
Ave neighs/atom = 1.5468657
Neighbor list builds = 7
Dangerous builds = 0
variable diffke equal abs(f_long_ave-f_short_ave)
if "${diffke} <= 0.00000001" then "jump SELF break"
next Loop_Count
jump SELF loop
variable 	Loop_Count loop 10000
run 		10000
Generated 0 of 3 mixed pair_coeff terms from geometric mixing rule
Per MPI rank memory allocation (min/avg/max) = 27.33 | 27.33 | 27.33 Mbytes
   Step        Atoms        KinEng         Volume    
    160000       10050   1899.4944      30064.845    

****************************************************************************
*** Current Simulation is Initial Conditions PHASE I with parameters:
*** Friction_ON
*** Pressure = 10
*** Dimensionless Pressure = 0.1
*** Vibration Amplitude = 0
*** Vibration Frequency = 0.1
*** Time = 3.63903522502476
*** dt = 2.27326038544775e-05
*** kn = 100
*** kt = 28.5714285714286
*** gamma_n = 88.7891059836107
*** gamma_t = 44.3945529918053
****************************************************************************

    170000       10050   2033.3152      30016.247    
Loop time of 5.11928 on 1 procs for 10000 steps with 10050 atoms

Performance: 3836.669 tau/day, 1953.401 timesteps/s, 19.632 Matom-step/s
99.8% CPU use with 1 MPI tasks x no OpenMP threads

MPI task timing breakdown:
Section |  min time  |  avg time  |  max time  |%varavg| %total
---------------------------------------------------------------
Pair    | 1.635      | 1.635      | 1.635      |   0.0 | 31.94
Neigh   | 0.053788   | 0.053788   | 0.053788   |   0.0 |  1.05
Comm    | 1.9454     | 1.9454     | 1.9454     |   0.0 | 38.00
Output  | 0.0078151  | 0.0078151  | 0.0078151  |   0.0 |  0.15
Modify  | 1.4488     | 1.4488     | 1.4488     |   0.0 | 28.30
Other   |            | 0.02846    |            |       |  0.56

Nlocal:          10050 ave       10050 max       10050 min
Histogram: 1 0 0 0 0 0 0 0 0 0
Nghost:          23541 ave       23541 max       23541 min
Histogram: 1 0 0 0 0 0 0 0 0 0
Neighs:          15710 ave       15710 max       15710 min
Histogram: 1 0 0 0 0 0 0 0 0 0

Total # of neighbors = 15710
Ave neighs/atom = 1.5631841
Neighbor list builds = 7
Dangerous builds = 0
variable diffke equal abs(f_long_ave-f_short_ave)
if "${diffke} <= 0.00000001" then "jump SELF break"
next Loop_Count
jump SELF loop
variable 	Loop_Count loop 10000
run 		10000
Generated 0 of 3 mixed pair_coeff terms from geometric mixing rule
Per MPI rank memory allocation (min/avg/max) = 27.33 | 27.33 | 27.33 Mbytes
   Step        Atoms        KinEng         Volume    
    170000       10050   2033.3152      30015.254    

****************************************************************************
*** Current Simulation is Initial Conditions PHASE I with parameters:
*** Friction_ON
*** Pressure = 10
*** Dimensionless Pressure = 0.1
*** Vibration Amplitude = 0
*** Vibration Frequency = 0.1
*** Time = 3.86647492658881
*** dt = 2.27326038544775e-05
*** kn = 100
*** kt = 28.5714285714286
*** gamma_n = 88.7891059836107
*** gamma_t = 44.3945529918053
****************************************************************************

    180000       10050   2146.8822      29970.099    
Loop time of 5.10323 on 1 procs for 10000 steps with 10050 atoms

Performance: 3848.733 tau/day, 1959.543 timesteps/s, 19.693 Matom-step/s
99.7% CPU use with 1 MPI tasks x no OpenMP threads

MPI task timing breakdown:
Section |  min time  |  avg time  |  max time  |%varavg| %total
---------------------------------------------------------------
Pair    | 1.6183     | 1.6183     | 1.6183     |   0.0 | 31.71
Neigh   | 0.05412    | 0.05412    | 0.05412    |   0.0 |  1.06
Comm    | 1.9458     | 1.9458     | 1.9458     |   0.0 | 38.13
Output  | 0.0075045  | 0.0075045  | 0.0075045  |   0.0 |  0.15
Modify  | 1.449      | 1.449      | 1.449      |   0.0 | 28.39
Other   |            | 0.02845    |            |       |  0.56

Nlocal:          10050 ave       10050 max       10050 min
Histogram: 1 0 0 0 0 0 0 0 0 0
Nghost:          23532 ave       23532 max       23532 min
Histogram: 1 0 0 0 0 0 0 0 0 0
Neighs:          15863 ave       15863 max       15863 min
Histogram: 1 0 0 0 0 0 0 0 0 0

Total # of neighbors = 15863
Ave neighs/atom = 1.578408
Neighbor list builds = 7
Dangerous builds = 0
variable diffke equal abs(f_long_ave-f_short_ave)
if "${diffke} <= 0.00000001" then "jump SELF break"
next Loop_Count
jump SELF loop
variable 	Loop_Count loop 10000
run 		10000
Generated 0 of 3 mixed pair_coeff terms from geometric mixing rule
Per MPI rank memory allocation (min/avg/max) = 27.33 | 27.33 | 27.33 Mbytes
   Step        Atoms        KinEng         Volume    
    180000       10050   2146.8822      29965.633    

****************************************************************************
*** Current Simulation is Initial Conditions PHASE I with parameters:
*** Friction_ON
*** Pressure = 10
*** Dimensionless Pressure = 0.1
*** Vibration Amplitude = 0
*** Vibration Frequency = 0.1
*** Time = 4.09391462815285
*** dt = 2.27326038544775e-05
*** kn = 100
*** kt = 28.5714285714286
*** gamma_n = 88.7891059836107
*** gamma_t = 44.3945529918053
****************************************************************************

    190000       10050   2247.8283      29918.853    
Loop time of 5.07602 on 1 procs for 10000 steps with 10050 atoms

Performance: 3869.364 tau/day, 1970.047 timesteps/s, 19.799 Matom-step/s
99.8% CPU use with 1 MPI tasks x no OpenMP threads

MPI task timing breakdown:
Section |  min time  |  avg time  |  max time  |%varavg| %total
---------------------------------------------------------------
Pair    | 1.5919     | 1.5919     | 1.5919     |   0.0 | 31.36
Neigh   | 0.054368   | 0.054368   | 0.054368   |   0.0 |  1.07
Comm    | 1.9452     | 1.9452     | 1.9452     |   0.0 | 38.32
Output  | 0.0075203  | 0.0075203  | 0.0075203  |   0.0 |  0.15
Modify  | 1.4487     | 1.4487     | 1.4487     |   0.0 | 28.54
Other   |            | 0.02827    |            |       |  0.56

Nlocal:          10050 ave       10050 max       10050 min
Histogram: 1 0 0 0 0 0 0 0 0 0
Nghost:          23520 ave       23520 max       23520 min
Histogram: 1 0 0 0 0 0 0 0 0 0
Neighs:          16046 ave       16046 max       16046 min
Histogram: 1 0 0 0 0 0 0 0 0 0

Total # of neighbors = 16046
Ave neighs/atom = 1.5966169
Neighbor list builds = 7
Dangerous builds = 0
variable diffke equal abs(f_long_ave-f_short_ave)
if "${diffke} <= 0.00000001" then "jump SELF break"
next Loop_Count
jump SELF loop
variable 	Loop_Count loop 10000
run 		10000
Generated 0 of 3 mixed pair_coeff terms from geometric mixing rule
Per MPI rank memory allocation (min/avg/max) = 27.33 | 27.33 | 27.33 Mbytes
   Step        Atoms        KinEng         Volume    
    190000       10050   2247.8283      29915.867    

****************************************************************************
*** Current Simulation is Initial Conditions PHASE I with parameters:
*** Friction_ON
*** Pressure = 10
*** Dimensionless Pressure = 0.1
*** Vibration Amplitude = 0
*** Vibration Frequency = 0.1
*** Time = 4.3213543297169
*** dt = 2.27326038544775e-05
*** kn = 100
*** kt = 28.5714285714286
*** gamma_n = 88.7891059836107
*** gamma_t = 44.3945529918053
****************************************************************************

    200000       10050   2359.9033      29870.253    
Loop time of 5.09233 on 1 procs for 10000 steps with 10050 atoms

Performance: 3856.969 tau/day, 1963.737 timesteps/s, 19.736 Matom-step/s
99.7% CPU use with 1 MPI tasks x no OpenMP threads

MPI task timing breakdown:
Section |  min time  |  avg time  |  max time  |%varavg| %total
---------------------------------------------------------------
Pair    | 1.6026     | 1.6026     | 1.6026     |   0.0 | 31.47
Neigh   | 0.05508    | 0.05508    | 0.05508    |   0.0 |  1.08
Comm    | 1.947      | 1.947      | 1.947      |   0.0 | 38.23
Output  | 0.007524   | 0.007524   | 0.007524   |   0.0 |  0.15
Modify  | 1.4516     | 1.4516     | 1.4516     |   0.0 | 28.50
Other   |            | 0.02853    |            |       |  0.56

Nlocal:          10050 ave       10050 max       10050 min
Histogram: 1 0 0 0 0 0 0 0 0 0
Nghost:          23495 ave       23495 max       23495 min
Histogram: 1 0 0 0 0 0 0 0 0 0
Neighs:          16182 ave       16182 max       16182 min
Histogram: 1 0 0 0 0 0 0 0 0 0

Total # of neighbors = 16182
Ave neighs/atom = 1.6101493
Neighbor list builds = 7
Dangerous builds = 0
variable diffke equal abs(f_long_ave-f_short_ave)
if "${diffke} <= 0.00000001" then "jump SELF break"
next Loop_Count
jump SELF loop
variable 	Loop_Count loop 10000
run 		10000
Generated 0 of 3 mixed pair_coeff terms from geometric mixing rule
Per MPI rank memory allocation (min/avg/max) = 27.33 | 27.33 | 27.33 Mbytes
   Step        Atoms        KinEng         Volume    
    200000       10050   2359.9033      29866.297    

****************************************************************************
*** Current Simulation is Initial Conditions PHASE I with parameters:
*** Friction_ON
*** Pressure = 10
*** Dimensionless Pressure = 0.1
*** Vibration Amplitude = 0
*** Vibration Frequency = 0.1
*** Time = 4.54879403128095
*** dt = 2.27326038544775e-05
*** kn = 100
*** kt = 28.5714285714286
*** gamma_n = 88.7891059836107
*** gamma_t = 44.3945529918053
****************************************************************************

    210000       10050   2470.6359      29818.033    
Loop time of 5.07551 on 1 procs for 10000 steps with 10050 atoms

Performance: 3869.750 tau/day, 1970.244 timesteps/s, 19.801 Matom-step/s
99.8% CPU use with 1 MPI tasks x no OpenMP threads

MPI task timing breakdown:
Section |  min time  |  avg time  |  max time  |%varavg| %total
---------------------------------------------------------------
Pair    | 1.5926     | 1.5926     | 1.5926     |   0.0 | 31.38
Neigh   | 0.055044   | 0.055044   | 0.055044   |   0.0 |  1.08
Comm    | 1.9427     | 1.9427     | 1.9427     |   0.0 | 38.28
Output  | 0.0075007  | 0.0075007  | 0.0075007  |   0.0 |  0.15
Modify  | 1.4493     | 1.4493     | 1.4493     |   0.0 | 28.55
Other   |            | 0.02839    |            |       |  0.56

Nlocal:          10050 ave       10050 max       10050 min
Histogram: 1 0 0 0 0 0 0 0 0 0
Nghost:          23486 ave       23486 max       23486 min
Histogram: 1 0 0 0 0 0 0 0 0 0
Neighs:          16320 ave       16320 max       16320 min
Histogram: 1 0 0 0 0 0 0 0 0 0

Total # of neighbors = 16320
Ave neighs/atom = 1.6238806
Neighbor list builds = 7
Dangerous builds = 0
variable diffke equal abs(f_long_ave-f_short_ave)
if "${diffke} <= 0.00000001" then "jump SELF break"
next Loop_Count
jump SELF loop
variable 	Loop_Count loop 10000
run 		10000
Generated 0 of 3 mixed pair_coeff terms from geometric mixing rule
Per MPI rank memory allocation (min/avg/max) = 27.33 | 27.33 | 27.33 Mbytes
   Step        Atoms        KinEng         Volume    
    210000       10050   2470.6359      29817.049    

****************************************************************************
*** Current Simulation is Initial Conditions PHASE I with parameters:
*** Friction_ON
*** Pressure = 10
*** Dimensionless Pressure = 0.1
*** Vibration Amplitude = 0
*** Vibration Frequency = 0.1
*** Time = 4.776233732845
*** dt = 2.27326038544775e-05
*** kn = 100
*** kt = 28.5714285714286
*** gamma_n = 88.7891059836107
*** gamma_t = 44.3945529918053
****************************************************************************

    220000       10050   2573.218       29771.351    
Loop time of 5.103 on 1 procs for 10000 steps with 10050 atoms

Performance: 3848.910 tau/day, 1959.633 timesteps/s, 19.694 Matom-step/s
99.7% CPU use with 1 MPI tasks x no OpenMP threads

MPI task timing breakdown:
Section |  min time  |  avg time  |  max time  |%varavg| %total
---------------------------------------------------------------
Pair    | 1.6171     | 1.6171     | 1.6171     |   0.0 | 31.69
Neigh   | 0.055201   | 0.055201   | 0.055201   |   0.0 |  1.08
Comm    | 1.9442     | 1.9442     | 1.9442     |   0.0 | 38.10
Output  | 0.0074335  | 0.0074335  | 0.0074335  |   0.0 |  0.15
Modify  | 1.4506     | 1.4506     | 1.4506     |   0.0 | 28.43
Other   |            | 0.02854    |            |       |  0.56

Nlocal:          10050 ave       10050 max       10050 min
Histogram: 1 0 0 0 0 0 0 0 0 0
Nghost:          23509 ave       23509 max       23509 min
Histogram: 1 0 0 0 0 0 0 0 0 0
Neighs:          16482 ave       16482 max       16482 min
Histogram: 1 0 0 0 0 0 0 0 0 0

Total # of neighbors = 16482
Ave neighs/atom = 1.64
Neighbor list builds = 7
Dangerous builds = 0
variable diffke equal abs(f_long_ave-f_short_ave)
if "${diffke} <= 0.00000001" then "jump SELF break"
next Loop_Count
jump SELF loop
variable 	Loop_Count loop 10000
run 		10000
Generated 0 of 3 mixed pair_coeff terms from geometric mixing rule
Per MPI rank memory allocation (min/avg/max) = 27.33 | 27.33 | 27.33 Mbytes
   Step        Atoms        KinEng         Volume    
    220000       10050   2573.218       29767.916    

****************************************************************************
*** Current Simulation is Initial Conditions PHASE I with parameters:
*** Friction_ON
*** Pressure = 10
*** Dimensionless Pressure = 0.1
*** Vibration Amplitude = 0
*** Vibration Frequency = 0.1
*** Time = 5.00367343440904
*** dt = 2.27326038544775e-05
*** kn = 100
*** kt = 28.5714285714286
*** gamma_n = 88.7891059836107
*** gamma_t = 44.3945529918053
****************************************************************************

    230000       10050   2675.2113      29720.445    
Loop time of 5.1098 on 1 procs for 10000 steps with 10050 atoms

Performance: 3843.786 tau/day, 1957.025 timesteps/s, 19.668 Matom-step/s
99.7% CPU use with 1 MPI tasks x no OpenMP threads

MPI task timing breakdown:
Section |  min time  |  avg time  |  max time  |%varavg| %total
---------------------------------------------------------------
Pair    | 1.6257     | 1.6257     | 1.6257     |   0.0 | 31.82
Neigh   | 0.055653   | 0.055653   | 0.055653   |   0.0 |  1.09
Comm    | 1.9436     | 1.9436     | 1.9436     |   0.0 | 38.04
Output  | 0.0073749  | 0.0073749  | 0.0073749  |   0.0 |  0.14
Modify  | 1.4491     | 1.4491     | 1.4491     |   0.0 | 28.36
Other   |            | 0.02836    |            |       |  0.56

Nlocal:          10050 ave       10050 max       10050 min
Histogram: 1 0 0 0 0 0 0 0 0 0
Nghost:          23490 ave       23490 max       23490 min
Histogram: 1 0 0 0 0 0 0 0 0 0
Neighs:          16633 ave       16633 max       16633 min
Histogram: 1 0 0 0 0 0 0 0 0 0

Total # of neighbors = 16633
Ave neighs/atom = 1.6550249
Neighbor list builds = 7
Dangerous builds = 0
variable diffke equal abs(f_long_ave-f_short_ave)
if "${diffke} <= 0.00000001" then "jump SELF break"
next Loop_Count
jump SELF loop
variable 	Loop_Count loop 10000
run 		10000
Generated 0 of 3 mixed pair_coeff terms from geometric mixing rule
Per MPI rank memory allocation (min/avg/max) = 27.33 | 27.33 | 27.33 Mbytes
   Step        Atoms        KinEng         Volume    
    230000       10050   2675.2113      29718.979    

****************************************************************************
*** Current Simulation is Initial Conditions PHASE I with parameters:
*** Friction_ON
*** Pressure = 10
*** Dimensionless Pressure = 0.1
*** Vibration Amplitude = 0
*** Vibration Frequency = 0.1
*** Time = 5.23111313597309
*** dt = 2.27326038544775e-05
*** kn = 100
*** kt = 28.5714285714286
*** gamma_n = 88.7891059836107
*** gamma_t = 44.3945529918053
****************************************************************************

    240000       10050   2764.0124      29671.1      
Loop time of 5.1155 on 1 procs for 10000 steps with 10050 atoms

Performance: 3839.498 tau/day, 1954.841 timesteps/s, 19.646 Matom-step/s
99.7% CPU use with 1 MPI tasks x no OpenMP threads

MPI task timing breakdown:
Section |  min time  |  avg time  |  max time  |%varavg| %total
---------------------------------------------------------------
Pair    | 1.6314     | 1.6314     | 1.6314     |   0.0 | 31.89
Neigh   | 0.056092   | 0.056092   | 0.056092   |   0.0 |  1.10
Comm    | 1.9424     | 1.9424     | 1.9424     |   0.0 | 37.97
Output  | 0.0086489  | 0.0086489  | 0.0086489  |   0.0 |  0.17
Modify  | 1.4486     | 1.4486     | 1.4486     |   0.0 | 28.32
Other   |            | 0.02836    |            |       |  0.55

Nlocal:          10050 ave       10050 max       10050 min
Histogram: 1 0 0 0 0 0 0 0 0 0
Nghost:          23467 ave       23467 max       23467 min
Histogram: 1 0 0 0 0 0 0 0 0 0
Neighs:          16769 ave       16769 max       16769 min
Histogram: 1 0 0 0 0 0 0 0 0 0

Total # of neighbors = 16769
Ave neighs/atom = 1.6685572
Neighbor list builds = 7
Dangerous builds = 0
variable diffke equal abs(f_long_ave-f_short_ave)
if "${diffke} <= 0.00000001" then "jump SELF break"
next Loop_Count
jump SELF loop
variable 	Loop_Count loop 10000
run 		10000
Generated 0 of 3 mixed pair_coeff terms from geometric mixing rule
Per MPI rank memory allocation (min/avg/max) = 27.33 | 27.33 | 27.33 Mbytes
   Step        Atoms        KinEng         Volume    
    240000       10050   2764.0124      29670.125    

****************************************************************************
*** Current Simulation is Initial Conditions PHASE I with parameters:
*** Friction_ON
*** Pressure = 10
*** Dimensionless Pressure = 0.1
*** Vibration Amplitude = 0
*** Vibration Frequency = 0.1
*** Time = 5.45855283753714
*** dt = 2.27326038544775e-05
*** kn = 100
*** kt = 28.5714285714286
*** gamma_n = 88.7891059836107
*** gamma_t = 44.3945529918053
****************************************************************************

    250000       10050   2870.2849      29623.037    
Loop time of 5.52325 on 1 procs for 10000 steps with 10050 atoms

Performance: 3556.050 tau/day, 1810.527 timesteps/s, 18.196 Matom-step/s
96.1% CPU use with 1 MPI tasks x no OpenMP threads

MPI task timing breakdown:
Section |  min time  |  avg time  |  max time  |%varavg| %total
---------------------------------------------------------------
Pair    | 1.823      | 1.823      | 1.823      |   0.0 | 33.01
Neigh   | 0.057646   | 0.057646   | 0.057646   |   0.0 |  1.04
Comm    | 2.0675     | 2.0675     | 2.0675     |   0.0 | 37.43
Output  | 0.01341    | 0.01341    | 0.01341    |   0.0 |  0.24
Modify  | 1.5301     | 1.5301     | 1.5301     |   0.0 | 27.70
Other   |            | 0.03158    |            |       |  0.57

Nlocal:          10050 ave       10050 max       10050 min
Histogram: 1 0 0 0 0 0 0 0 0 0
Nghost:          23452 ave       23452 max       23452 min
Histogram: 1 0 0 0 0 0 0 0 0 0
Neighs:          16916 ave       16916 max       16916 min
Histogram: 1 0 0 0 0 0 0 0 0 0

Total # of neighbors = 16916
Ave neighs/atom = 1.6831841
Neighbor list builds = 7
Dangerous builds = 0
variable diffke equal abs(f_long_ave-f_short_ave)
if "${diffke} <= 0.00000001" then "jump SELF break"
next Loop_Count
jump SELF loop
variable 	Loop_Count loop 10000
run 		10000
Generated 0 of 3 mixed pair_coeff terms from geometric mixing rule
Per MPI rank memory allocation (min/avg/max) = 27.33 | 27.33 | 27.33 Mbytes
   Step        Atoms        KinEng         Volume    
    250000       10050   2870.2849      29621.588    

****************************************************************************
*** Current Simulation is Initial Conditions PHASE I with parameters:
*** Friction_ON
*** Pressure = 10
*** Dimensionless Pressure = 0.1
*** Vibration Amplitude = 0
*** Vibration Frequency = 0.1
*** Time = 5.68599253910118
*** dt = 2.27326038544775e-05
*** kn = 100
*** kt = 28.5714285714286
*** gamma_n = 88.7891059836107
*** gamma_t = 44.3945529918053
****************************************************************************

    260000       10050   2988.3534      29574.397    
Loop time of 5.24768 on 1 procs for 10000 steps with 10050 atoms

Performance: 3742.790 tau/day, 1905.603 timesteps/s, 19.151 Matom-step/s
99.3% CPU use with 1 MPI tasks x no OpenMP threads

MPI task timing breakdown:
Section |  min time  |  avg time  |  max time  |%varavg| %total
---------------------------------------------------------------
Pair    | 1.7243     | 1.7243     | 1.7243     |   0.0 | 32.86
Neigh   | 0.056549   | 0.056549   | 0.056549   |   0.0 |  1.08
Comm    | 1.961      | 1.961      | 1.961      |   0.0 | 37.37
Output  | 0.0077623  | 0.0077623  | 0.0077623  |   0.0 |  0.15
Modify  | 1.4686     | 1.4686     | 1.4686     |   0.0 | 27.99
Other   |            | 0.02949    |            |       |  0.56

Nlocal:          10050 ave       10050 max       10050 min
Histogram: 1 0 0 0 0 0 0 0 0 0
Nghost:          23422 ave       23422 max       23422 min
Histogram: 1 0 0 0 0 0 0 0 0 0
Neighs:          17068 ave       17068 max       17068 min
Histogram: 1 0 0 0 0 0 0 0 0 0

Total # of neighbors = 17068
Ave neighs/atom = 1.6983085
Neighbor list builds = 7
Dangerous builds = 0
variable diffke equal abs(f_long_ave-f_short_ave)
if "${diffke} <= 0.00000001" then "jump SELF break"
next Loop_Count
jump SELF loop
variable 	Loop_Count loop 10000
run 		10000
Generated 0 of 3 mixed pair_coeff terms from geometric mixing rule
Per MPI rank memory allocation (min/avg/max) = 27.33 | 27.33 | 27.33 Mbytes
   Step        Atoms        KinEng         Volume    
    260000       10050   2988.3534      29573.436    

****************************************************************************
*** Current Simulation is Initial Conditions PHASE I with parameters:
*** Friction_ON
*** Pressure = 10
*** Dimensionless Pressure = 0.1
*** Vibration Amplitude = 0
*** Vibration Frequency = 0.1
*** Time = 5.91343224066523
*** dt = 2.27326038544775e-05
*** kn = 100
*** kt = 28.5714285714286
*** gamma_n = 88.7891059836107
*** gamma_t = 44.3945529918053
****************************************************************************

    270000       10050   3099.3102      29526.37     
Loop time of 5.34147 on 1 procs for 10000 steps with 10050 atoms

Performance: 3677.073 tau/day, 1872.144 timesteps/s, 18.815 Matom-step/s
98.8% CPU use with 1 MPI tasks x no OpenMP threads

MPI task timing breakdown:
Section |  min time  |  avg time  |  max time  |%varavg| %total
---------------------------------------------------------------
Pair    | 1.7766     | 1.7766     | 1.7766     |   0.0 | 33.26
Neigh   | 0.058863   | 0.058863   | 0.058863   |   0.0 |  1.10
Comm    | 1.9849     | 1.9849     | 1.9849     |   0.0 | 37.16
Output  | 0.0080852  | 0.0080852  | 0.0080852  |   0.0 |  0.15
Modify  | 1.4832     | 1.4832     | 1.4832     |   0.0 | 27.77
Other   |            | 0.02988    |            |       |  0.56

Nlocal:          10050 ave       10050 max       10050 min
Histogram: 1 0 0 0 0 0 0 0 0 0
Nghost:          23412 ave       23412 max       23412 min
Histogram: 1 0 0 0 0 0 0 0 0 0
Neighs:          17224 ave       17224 max       17224 min
Histogram: 1 0 0 0 0 0 0 0 0 0

Total # of neighbors = 17224
Ave neighs/atom = 1.7138308
Neighbor list builds = 7
Dangerous builds = 0
variable diffke equal abs(f_long_ave-f_short_ave)
if "${diffke} <= 0.00000001" then "jump SELF break"
next Loop_Count
jump SELF loop
variable 	Loop_Count loop 10000
run 		10000
Generated 0 of 3 mixed pair_coeff terms from geometric mixing rule
Per MPI rank memory allocation (min/avg/max) = 27.33 | 27.33 | 27.33 Mbytes
   Step        Atoms        KinEng         Volume    
    270000       10050   3099.3102      29525.409    

****************************************************************************
*** Current Simulation is Initial Conditions PHASE I with parameters:
*** Friction_ON
*** Pressure = 10
*** Dimensionless Pressure = 0.1
*** Vibration Amplitude = 0
*** Vibration Frequency = 0.1
*** Time = 6.14087194222928
*** dt = 2.27326038544775e-05
*** kn = 100
*** kt = 28.5714285714286
*** gamma_n = 88.7891059836107
*** gamma_t = 44.3945529918053
****************************************************************************

    280000       10050   3191.7275      29479.763    
Loop time of 5.21854 on 1 procs for 10000 steps with 10050 atoms

Performance: 3763.693 tau/day, 1916.246 timesteps/s, 19.258 Matom-step/s
99.8% CPU use with 1 MPI tasks x no OpenMP threads

MPI task timing breakdown:
Section |  min time  |  avg time  |  max time  |%varavg| %total
---------------------------------------------------------------
Pair    | 1.727      | 1.727      | 1.727      |   0.0 | 33.09
Neigh   | 0.057713   | 0.057713   | 0.057713   |   0.0 |  1.11
Comm    | 1.9436     | 1.9436     | 1.9436     |   0.0 | 37.25
Output  | 0.0075169  | 0.0075169  | 0.0075169  |   0.0 |  0.14
Modify  | 1.454      | 1.454      | 1.454      |   0.0 | 27.86
Other   |            | 0.02859    |            |       |  0.55

Nlocal:          10050 ave       10050 max       10050 min
Histogram: 1 0 0 0 0 0 0 0 0 0
Nghost:          23405 ave       23405 max       23405 min
Histogram: 1 0 0 0 0 0 0 0 0 0
Neighs:          17335 ave       17335 max       17335 min
Histogram: 1 0 0 0 0 0 0 0 0 0

Total # of neighbors = 17335
Ave neighs/atom = 1.7248756
Neighbor list builds = 7
Dangerous builds = 0
variable diffke equal abs(f_long_ave-f_short_ave)
if "${diffke} <= 0.00000001" then "jump SELF break"
next Loop_Count
jump SELF loop
variable 	Loop_Count loop 10000
run 		10000
Generated 0 of 3 mixed pair_coeff terms from geometric mixing rule
Per MPI rank memory allocation (min/avg/max) = 27.33 | 27.33 | 27.33 Mbytes
   Step        Atoms        KinEng         Volume    
    280000       10050   3191.7275      29477.359    

****************************************************************************
*** Current Simulation is Initial Conditions PHASE I with parameters:
*** Friction_ON
*** Pressure = 10
*** Dimensionless Pressure = 0.1
*** Vibration Amplitude = 0
*** Vibration Frequency = 0.1
*** Time = 6.36831164379333
*** dt = 2.27326038544775e-05
*** kn = 100
*** kt = 28.5714285714286
*** gamma_n = 88.7891059836107
*** gamma_t = 44.3945529918053
****************************************************************************

    290000       10050   3323.0769      29432.215    
Loop time of 5.22386 on 1 procs for 10000 steps with 10050 atoms

Performance: 3759.861 tau/day, 1914.295 timesteps/s, 19.239 Matom-step/s
99.7% CPU use with 1 MPI tasks x no OpenMP threads

MPI task timing breakdown:
Section |  min time  |  avg time  |  max time  |%varavg| %total
---------------------------------------------------------------
Pair    | 1.7407     | 1.7407     | 1.7407     |   0.0 | 33.32
Neigh   | 0.057425   | 0.057425   | 0.057425   |   0.0 |  1.10
Comm    | 1.9385     | 1.9385     | 1.9385     |   0.0 | 37.11
Output  | 0.007916   | 0.007916   | 0.007916   |   0.0 |  0.15
Modify  | 1.451      | 1.451      | 1.451      |   0.0 | 27.78
Other   |            | 0.02839    |            |       |  0.54

Nlocal:          10050 ave       10050 max       10050 min
Histogram: 1 0 0 0 0 0 0 0 0 0
Nghost:          23403 ave       23403 max       23403 min
Histogram: 1 0 0 0 0 0 0 0 0 0
Neighs:          17483 ave       17483 max       17483 min
Histogram: 1 0 0 0 0 0 0 0 0 0

Total # of neighbors = 17483
Ave neighs/atom = 1.739602
Neighbor list builds = 7
Dangerous builds = 0
variable diffke equal abs(f_long_ave-f_short_ave)
if "${diffke} <= 0.00000001" then "jump SELF break"
next Loop_Count
jump SELF loop
variable 	Loop_Count loop 10000
run 		10000
Generated 0 of 3 mixed pair_coeff terms from geometric mixing rule
Per MPI rank memory allocation (min/avg/max) = 27.33 | 27.33 | 27.33 Mbytes
   Step        Atoms        KinEng         Volume    
    290000       10050   3323.0769      29429.336    

****************************************************************************
*** Current Simulation is Initial Conditions PHASE I with parameters:
*** Friction_ON
*** Pressure = 10
*** Dimensionless Pressure = 0.1
*** Vibration Amplitude = 0
*** Vibration Frequency = 0.1
*** Time = 6.59575134535737
*** dt = 2.27326038544775e-05
*** kn = 100
*** kt = 28.5714285714286
*** gamma_n = 88.7891059836107
*** gamma_t = 44.3945529918053
****************************************************************************

    300000       10050   3425.9366      29384.209    
Loop time of 5.26954 on 1 procs for 10000 steps with 10050 atoms

Performance: 3727.261 tau/day, 1897.697 timesteps/s, 19.072 Matom-step/s
99.6% CPU use with 1 MPI tasks x no OpenMP threads

MPI task timing breakdown:
Section |  min time  |  avg time  |  max time  |%varavg| %total
---------------------------------------------------------------
Pair    | 1.774      | 1.774      | 1.774      |   0.0 | 33.67
Neigh   | 0.057322   | 0.057322   | 0.057322   |   0.0 |  1.09
Comm    | 1.9434     | 1.9434     | 1.9434     |   0.0 | 36.88
Output  | 0.010294   | 0.010294   | 0.010294   |   0.0 |  0.20
Modify  | 1.4556     | 1.4556     | 1.4556     |   0.0 | 27.62
Other   |            | 0.02884    |            |       |  0.55

Nlocal:          10050 ave       10050 max       10050 min
Histogram: 1 0 0 0 0 0 0 0 0 0
Nghost:          23378 ave       23378 max       23378 min
Histogram: 1 0 0 0 0 0 0 0 0 0
Neighs:          17644 ave       17644 max       17644 min
Histogram: 1 0 0 0 0 0 0 0 0 0

Total # of neighbors = 17644
Ave neighs/atom = 1.7556219
Neighbor list builds = 7
Dangerous builds = 0
variable diffke equal abs(f_long_ave-f_short_ave)
if "${diffke} <= 0.00000001" then "jump SELF break"
next Loop_Count
jump SELF loop
variable 	Loop_Count loop 10000
run 		10000
Generated 0 of 3 mixed pair_coeff terms from geometric mixing rule
Per MPI rank memory allocation (min/avg/max) = 27.33 | 27.33 | 27.33 Mbytes
   Step        Atoms        KinEng         Volume    
    300000       10050   3425.9366      29381.322    

****************************************************************************
*** Current Simulation is Initial Conditions PHASE I with parameters:
*** Friction_ON
*** Pressure = 10
*** Dimensionless Pressure = 0.1
*** Vibration Amplitude = 0
*** Vibration Frequency = 0.1
*** Time = 6.82319104692142
*** dt = 2.27326038544775e-05
*** kn = 100
*** kt = 28.5714285714286
*** gamma_n = 88.7891059836107
*** gamma_t = 44.3945529918053
****************************************************************************

    310000       10050   3546.7102      29334.035    
Loop time of 5.26786 on 1 procs for 10000 steps with 10050 atoms

Performance: 3728.455 tau/day, 1898.305 timesteps/s, 19.078 Matom-step/s
99.7% CPU use with 1 MPI tasks x no OpenMP threads

MPI task timing breakdown:
Section |  min time  |  avg time  |  max time  |%varavg| %total
---------------------------------------------------------------
Pair    | 1.7861     | 1.7861     | 1.7861     |   0.0 | 33.90
Neigh   | 0.057581   | 0.057581   | 0.057581   |   0.0 |  1.09
Comm    | 1.9367     | 1.9367     | 1.9367     |   0.0 | 36.76
Output  | 0.0079068  | 0.0079068  | 0.0079068  |   0.0 |  0.15
Modify  | 1.451      | 1.451      | 1.451      |   0.0 | 27.54
Other   |            | 0.02863    |            |       |  0.54

Nlocal:          10050 ave       10050 max       10050 min
Histogram: 1 0 0 0 0 0 0 0 0 0
Nghost:          23375 ave       23375 max       23375 min
Histogram: 1 0 0 0 0 0 0 0 0 0
Neighs:          17806 ave       17806 max       17806 min
Histogram: 1 0 0 0 0 0 0 0 0 0

Total # of neighbors = 17806
Ave neighs/atom = 1.7717413
Neighbor list builds = 7
Dangerous builds = 0
variable diffke equal abs(f_long_ave-f_short_ave)
if "${diffke} <= 0.00000001" then "jump SELF break"
next Loop_Count
jump SELF loop
variable 	Loop_Count loop 10000
run 		10000
Generated 0 of 3 mixed pair_coeff terms from geometric mixing rule
Per MPI rank memory allocation (min/avg/max) = 27.33 | 27.33 | 27.33 Mbytes
   Step        Atoms        KinEng         Volume    
    310000       10050   3546.7102      29333.067    

****************************************************************************
*** Current Simulation is Initial Conditions PHASE I with parameters:
*** Friction_ON
*** Pressure = 10
*** Dimensionless Pressure = 0.1
*** Vibration Amplitude = 0
*** Vibration Frequency = 0.1
*** Time = 7.05063074848547
*** dt = 2.27326038544775e-05
*** kn = 100
*** kt = 28.5714285714286
*** gamma_n = 88.7891059836107
*** gamma_t = 44.3945529918053
****************************************************************************

    320000       10050   3639.5675      29286.613    
Loop time of 5.2888 on 1 procs for 10000 steps with 10050 atoms

Performance: 3713.691 tau/day, 1890.788 timesteps/s, 19.002 Matom-step/s
99.8% CPU use with 1 MPI tasks x no OpenMP threads

MPI task timing breakdown:
Section |  min time  |  avg time  |  max time  |%varavg| %total
---------------------------------------------------------------
Pair    | 1.81       | 1.81       | 1.81       |   0.0 | 34.22
Neigh   | 0.058085   | 0.058085   | 0.058085   |   0.0 |  1.10
Comm    | 1.9348     | 1.9348     | 1.9348     |   0.0 | 36.58
Output  | 0.0079017  | 0.0079017  | 0.0079017  |   0.0 |  0.15
Modify  | 1.4497     | 1.4497     | 1.4497     |   0.0 | 27.41
Other   |            | 0.02842    |            |       |  0.54

Nlocal:          10050 ave       10050 max       10050 min
Histogram: 1 0 0 0 0 0 0 0 0 0
Nghost:          23369 ave       23369 max       23369 min
Histogram: 1 0 0 0 0 0 0 0 0 0
Neighs:          17968 ave       17968 max       17968 min
Histogram: 1 0 0 0 0 0 0 0 0 0

Total # of neighbors = 17968
Ave neighs/atom = 1.7878607
Neighbor list builds = 7
Dangerous builds = 0
variable diffke equal abs(f_long_ave-f_short_ave)
if "${diffke} <= 0.00000001" then "jump SELF break"
next Loop_Count
jump SELF loop
variable 	Loop_Count loop 10000
run 		10000
Generated 0 of 3 mixed pair_coeff terms from geometric mixing rule
Per MPI rank memory allocation (min/avg/max) = 27.33 | 27.33 | 27.33 Mbytes
   Step        Atoms        KinEng         Volume    
    320000       10050   3639.5675      29284.677    

****************************************************************************
*** Current Simulation is Initial Conditions PHASE I with parameters:
*** Friction_ON
*** Pressure = 10
*** Dimensionless Pressure = 0.1
*** Vibration Amplitude = 0
*** Vibration Frequency = 0.1
*** Time = 7.27807045004952
*** dt = 2.27326038544775e-05
*** kn = 100
*** kt = 28.5714285714286
*** gamma_n = 88.7891059836107
*** gamma_t = 44.3945529918053
****************************************************************************

    330000       10050   3738.7827      29236.764    
Loop time of 5.33774 on 1 procs for 10000 steps with 10050 atoms

Performance: 3679.641 tau/day, 1873.452 timesteps/s, 18.828 Matom-step/s
99.8% CPU use with 1 MPI tasks x no OpenMP threads

MPI task timing breakdown:
Section |  min time  |  avg time  |  max time  |%varavg| %total
---------------------------------------------------------------
Pair    | 1.8454     | 1.8454     | 1.8454     |   0.0 | 34.57
Neigh   | 0.059317   | 0.059317   | 0.059317   |   0.0 |  1.11
Comm    | 1.9423     | 1.9423     | 1.9423     |   0.0 | 36.39
Output  | 0.0076165  | 0.0076165  | 0.0076165  |   0.0 |  0.14
Modify  | 1.4546     | 1.4546     | 1.4546     |   0.0 | 27.25
Other   |            | 0.02852    |            |       |  0.53

Nlocal:          10050 ave       10050 max       10050 min
Histogram: 1 0 0 0 0 0 0 0 0 0
Nghost:          23365 ave       23365 max       23365 min
Histogram: 1 0 0 0 0 0 0 0 0 0
Neighs:          18114 ave       18114 max       18114 min
Histogram: 1 0 0 0 0 0 0 0 0 0

Total # of neighbors = 18114
Ave neighs/atom = 1.8023881
Neighbor list builds = 7
Dangerous builds = 0
variable diffke equal abs(f_long_ave-f_short_ave)
if "${diffke} <= 0.00000001" then "jump SELF break"
next Loop_Count
jump SELF loop
variable 	Loop_Count loop 10000
run 		10000
Generated 0 of 3 mixed pair_coeff terms from geometric mixing rule
Per MPI rank memory allocation (min/avg/max) = 27.33 | 27.33 | 27.33 Mbytes
   Step        Atoms        KinEng         Volume    
    330000       10050   3738.7827      29236.281    

****************************************************************************
*** Current Simulation is Initial Conditions PHASE I with parameters:
*** Friction_ON
*** Pressure = 10
*** Dimensionless Pressure = 0.1
*** Vibration Amplitude = 0
*** Vibration Frequency = 0.1
*** Time = 7.50551015161356
*** dt = 2.27326038544775e-05
*** kn = 100
*** kt = 28.5714285714286
*** gamma_n = 88.7891059836107
*** gamma_t = 44.3945529918053
****************************************************************************

    340000       10050   3834.293       29188.442    
Loop time of 5.34754 on 1 procs for 10000 steps with 10050 atoms

Performance: 3672.899 tau/day, 1870.019 timesteps/s, 18.794 Matom-step/s
99.8% CPU use with 1 MPI tasks x no OpenMP threads

MPI task timing breakdown:
Section |  min time  |  avg time  |  max time  |%varavg| %total
[...]

   4950000       10050   16108.533      12343.991    
Loop time of 20.0094 on 1 procs for 10000 steps with 10050 atoms

Performance: 981.588 tau/day, 499.766 timesteps/s, 5.023 Matom-step/s
99.8% CPU use with 1 MPI tasks x no OpenMP threads

MPI task timing breakdown:
Section |  min time  |  avg time  |  max time  |%varavg| %total
---------------------------------------------------------------
Pair    | 16.489     | 16.489     | 16.489     |   0.0 | 82.41
Neigh   | 0.069262   | 0.069262   | 0.069262   |   0.0 |  0.35
Comm    | 1.951      | 1.951      | 1.951      |   0.0 |  9.75
Output  | 0.0085974  | 0.0085974  | 0.0085974  |   0.0 |  0.04
Modify  | 1.4628     | 1.4628     | 1.4628     |   0.0 |  7.31
Other   |            | 0.02894    |            |       |  0.14

Nlocal:          10050 ave       10050 max       10050 min
Histogram: 1 0 0 0 0 0 0 0 0 0
Nghost:          23439 ave       23439 max       23439 min
Histogram: 1 0 0 0 0 0 0 0 0 0
Neighs:          60211 ave       60211 max       60211 min
Histogram: 1 0 0 0 0 0 0 0 0 0

Total # of neighbors = 60211
Ave neighs/atom = 5.9911443
Neighbor list builds = 4
Dangerous builds = 0
variable diffke equal abs(f_long_ave-f_short_ave)
if "${diffke} <= 0.00000001" then "jump SELF break"
next Loop_Count
jump SELF loop
variable 	Loop_Count loop 10000
run 		10000
Generated 0 of 3 mixed pair_coeff terms from geometric mixing rule
Per MPI rank memory allocation (min/avg/max) = 27.33 | 27.33 | 27.33 Mbytes
   Step        Atoms        KinEng         Volume    
   4950000       10050   16108.533      12341.14     

****************************************************************************
*** Current Simulation is Initial Conditions PHASE I with parameters:
*** Friction_ON
*** Pressure = 10
*** Dimensionless Pressure = 0.1
*** Vibration Amplitude = 0
*** Vibration Frequency = 0.1
*** Time = 112.582652274203
*** dt = 2.27326038544775e-05
*** kn = 100
*** kt = 28.5714285714286
*** gamma_n = 88.7891059836107
*** gamma_t = 44.3945529918053
****************************************************************************

   4960000       10050   16110.182      12316.061    
Loop time of 20.5032 on 1 procs for 10000 steps with 10050 atoms

Performance: 957.945 tau/day, 487.728 timesteps/s, 4.902 Matom-step/s
98.7% CPU use with 1 MPI tasks x no OpenMP threads

MPI task timing breakdown:
Section |  min time  |  avg time  |  max time  |%varavg| %total
---------------------------------------------------------------
Pair    | 16.888     | 16.888     | 16.888     |   0.0 | 82.37
Neigh   | 0.076663   | 0.076663   | 0.076663   |   0.0 |  0.37
Comm    | 2.002      | 2.002      | 2.002      |   0.0 |  9.76
Output  | 0.011985   | 0.011985   | 0.011985   |   0.0 |  0.06
Modify  | 1.4943     | 1.4943     | 1.4943     |   0.0 |  7.29
Other   |            | 0.03036    |            |       |  0.15

Nlocal:          10050 ave       10050 max       10050 min
Histogram: 1 0 0 0 0 0 0 0 0 0
Nghost:          23445 ave       23445 max       23445 min
Histogram: 1 0 0 0 0 0 0 0 0 0
Neighs:          60250 ave       60250 max       60250 min
Histogram: 1 0 0 0 0 0 0 0 0 0

Total # of neighbors = 60250
Ave neighs/atom = 5.9950249
Neighbor list builds = 4
Dangerous builds = 0
variable diffke equal abs(f_long_ave-f_short_ave)
if "${diffke} <= 0.00000001" then "jump SELF break"
next Loop_Count
jump SELF loop
variable 	Loop_Count loop 10000
run 		10000
Generated 0 of 3 mixed pair_coeff terms from geometric mixing rule
Per MPI rank memory allocation (min/avg/max) = 27.33 | 27.33 | 27.33 Mbytes
   Step        Atoms        KinEng         Volume    
   4960000       10050   16110.182      12312.643    

****************************************************************************
*** Current Simulation is Initial Conditions PHASE I with parameters:
*** Friction_ON
*** Pressure = 10
*** Dimensionless Pressure = 0.1
*** Vibration Amplitude = 0
*** Vibration Frequency = 0.1
*** Time = 112.810091975768
*** dt = 2.27326038544775e-05
*** kn = 100
*** kt = 28.5714285714286
*** gamma_n = 88.7891059836107
*** gamma_t = 44.3945529918053
****************************************************************************

   4970000       10050   16110.451      12286.447    
Loop time of 20.1407 on 1 procs for 10000 steps with 10050 atoms

Performance: 975.186 tau/day, 496.506 timesteps/s, 4.990 Matom-step/s
99.8% CPU use with 1 MPI tasks x no OpenMP threads

MPI task timing breakdown:
Section |  min time  |  avg time  |  max time  |%varavg| %total
---------------------------------------------------------------
Pair    | 16.624     | 16.624     | 16.624     |   0.0 | 82.54
Neigh   | 0.068933   | 0.068933   | 0.068933   |   0.0 |  0.34
Comm    | 1.9498     | 1.9498     | 1.9498     |   0.0 |  9.68
Output  | 0.0088838  | 0.0088838  | 0.0088838  |   0.0 |  0.04
Modify  | 1.4602     | 1.4602     | 1.4602     |   0.0 |  7.25
Other   |            | 0.02891    |            |       |  0.14

Nlocal:          10050 ave       10050 max       10050 min
Histogram: 1 0 0 0 0 0 0 0 0 0
Nghost:          23445 ave       23445 max       23445 min
Histogram: 1 0 0 0 0 0 0 0 0 0
Neighs:          60311 ave       60311 max       60311 min
Histogram: 1 0 0 0 0 0 0 0 0 0

Total # of neighbors = 60311
Ave neighs/atom = 6.0010945
Neighbor list builds = 4
Dangerous builds = 0
variable diffke equal abs(f_long_ave-f_short_ave)
if "${diffke} <= 0.00000001" then "jump SELF break"
next Loop_Count
jump SELF loop
variable 	Loop_Count loop 10000
run 		10000
Generated 0 of 3 mixed pair_coeff terms from geometric mixing rule
Per MPI rank memory allocation (min/avg/max) = 27.33 | 27.33 | 27.33 Mbytes
   Step        Atoms        KinEng         Volume    
   4970000       10050   16110.451      12284.17     

****************************************************************************
*** Current Simulation is Initial Conditions PHASE I with parameters:
*** Friction_ON
*** Pressure = 10
*** Dimensionless Pressure = 0.1
*** Vibration Amplitude = 0
*** Vibration Frequency = 0.1
*** Time = 113.037531677332
*** dt = 2.27326038544775e-05
*** kn = 100
*** kt = 28.5714285714286
*** gamma_n = 88.7891059836107
*** gamma_t = 44.3945529918053
****************************************************************************

   4980000       10050   16105.383      12258.279    
Loop time of 19.9802 on 1 procs for 10000 steps with 10050 atoms

Performance: 983.020 tau/day, 500.495 timesteps/s, 5.030 Matom-step/s
99.9% CPU use with 1 MPI tasks x no OpenMP threads

MPI task timing breakdown:
Section |  min time  |  avg time  |  max time  |%varavg| %total
---------------------------------------------------------------
Pair    | 16.478     | 16.478     | 16.478     |   0.0 | 82.47
Neigh   | 0.068755   | 0.068755   | 0.068755   |   0.0 |  0.34
Comm    | 1.9438     | 1.9438     | 1.9438     |   0.0 |  9.73
Output  | 0.0085648  | 0.0085648  | 0.0085648  |   0.0 |  0.04
Modify  | 1.4533     | 1.4533     | 1.4533     |   0.0 |  7.27
Other   |            | 0.02825    |            |       |  0.14

Nlocal:          10050 ave       10050 max       10050 min
Histogram: 1 0 0 0 0 0 0 0 0 0
Nghost:          23458 ave       23458 max       23458 min
Histogram: 1 0 0 0 0 0 0 0 0 0
Neighs:          60363 ave       60363 max       60363 min
Histogram: 1 0 0 0 0 0 0 0 0 0

Total # of neighbors = 60363
Ave neighs/atom = 6.0062687
Neighbor list builds = 4
Dangerous builds = 0
variable diffke equal abs(f_long_ave-f_short_ave)
if "${diffke} <= 0.00000001" then "jump SELF break"
next Loop_Count
jump SELF loop
variable 	Loop_Count loop 10000
run 		10000
Generated 0 of 3 mixed pair_coeff terms from geometric mixing rule
Per MPI rank memory allocation (min/avg/max) = 27.33 | 27.33 | 27.33 Mbytes
   Step        Atoms        KinEng         Volume    
   4980000       10050   16105.383      12255.719    

****************************************************************************
*** Current Simulation is Initial Conditions PHASE I with parameters:
*** Friction_ON
*** Pressure = 10
*** Dimensionless Pressure = 0.1
*** Vibration Amplitude = 0
*** Vibration Frequency = 0.1
*** Time = 113.264971378896
*** dt = 2.27326038544775e-05
*** kn = 100
*** kt = 28.5714285714286
*** gamma_n = 88.7891059836107
*** gamma_t = 44.3945529918053
****************************************************************************

   4990000       10050   16105.144      12231.552    
Loop time of 20.3776 on 1 procs for 10000 steps with 10050 atoms

Performance: 963.850 tau/day, 490.734 timesteps/s, 4.932 Matom-step/s
99.5% CPU use with 1 MPI tasks x no OpenMP threads

MPI task timing breakdown:
Section |  min time  |  avg time  |  max time  |%varavg| %total
---------------------------------------------------------------
Pair    | 16.826     | 16.826     | 16.826     |   0.0 | 82.57
Neigh   | 0.068813   | 0.068813   | 0.068813   |   0.0 |  0.34
Comm    | 1.9681     | 1.9681     | 1.9681     |   0.0 |  9.66
Output  | 0.011949   | 0.011949   | 0.011949   |   0.0 |  0.06
Modify  | 1.473      | 1.473      | 1.473      |   0.0 |  7.23
Other   |            | 0.02952    |            |       |  0.14

Nlocal:          10050 ave       10050 max       10050 min
Histogram: 1 0 0 0 0 0 0 0 0 0
Nghost:          23453 ave       23453 max       23453 min
Histogram: 1 0 0 0 0 0 0 0 0 0
Neighs:          60416 ave       60416 max       60416 min
Histogram: 1 0 0 0 0 0 0 0 0 0

Total # of neighbors = 60416
Ave neighs/atom = 6.0115423
Neighbor list builds = 4
Dangerous builds = 0
variable diffke equal abs(f_long_ave-f_short_ave)
if "${diffke} <= 0.00000001" then "jump SELF break"
next Loop_Count
jump SELF loop
variable 	Loop_Count loop 10000
run 		10000
Generated 0 of 3 mixed pair_coeff terms from geometric mixing rule
Per MPI rank memory allocation (min/avg/max) = 27.33 | 27.33 | 27.33 Mbytes
   Step        Atoms        KinEng         Volume    
   4990000       10050   16105.144      12227.288    

****************************************************************************
*** Current Simulation is Initial Conditions PHASE I with parameters:
*** Friction_ON
*** Pressure = 10
*** Dimensionless Pressure = 0.1
*** Vibration Amplitude = 0
*** Vibration Frequency = 0.1
*** Time = 113.49241108046
*** dt = 2.27326038544775e-05
*** kn = 100
*** kt = 28.5714285714286
*** gamma_n = 88.7891059836107
*** gamma_t = 44.3945529918053
****************************************************************************

   5000000       10050   16100.259      12202.284    
Loop time of 20.7188 on 1 procs for 10000 steps with 10050 atoms

Performance: 947.979 tau/day, 482.654 timesteps/s, 4.851 Matom-step/s
99.5% CPU use with 1 MPI tasks x no OpenMP threads

MPI task timing breakdown:
Section |  min time  |  avg time  |  max time  |%varavg| %total
---------------------------------------------------------------
Pair    | 17.107     | 17.107     | 17.107     |   0.0 | 82.57
Neigh   | 0.069113   | 0.069113   | 0.069113   |   0.0 |  0.33
Comm    | 2.0049     | 2.0049     | 2.0049     |   0.0 |  9.68
Output  | 0.0088722  | 0.0088722  | 0.0088722  |   0.0 |  0.04
Modify  | 1.4973     | 1.4973     | 1.4973     |   0.0 |  7.23
Other   |            | 0.03121    |            |       |  0.15

Nlocal:          10050 ave       10050 max       10050 min
Histogram: 1 0 0 0 0 0 0 0 0 0
Nghost:          23447 ave       23447 max       23447 min
Histogram: 1 0 0 0 0 0 0 0 0 0
Neighs:          60492 ave       60492 max       60492 min
Histogram: 1 0 0 0 0 0 0 0 0 0

Total # of neighbors = 60492
Ave neighs/atom = 6.0191045
Neighbor list builds = 4
Dangerous builds = 0
variable diffke equal abs(f_long_ave-f_short_ave)
if "${diffke} <= 0.00000001" then "jump SELF break"
next Loop_Count
jump SELF loop
variable 	Loop_Count loop 10000
run 		10000
Generated 0 of 3 mixed pair_coeff terms from geometric mixing rule
Per MPI rank memory allocation (min/avg/max) = 27.33 | 27.33 | 27.33 Mbytes
   Step        Atoms        KinEng         Volume    
   5000000       10050   16100.259      12198.875    

****************************************************************************
*** Current Simulation is Initial Conditions PHASE I with parameters:
*** Friction_ON
*** Pressure = 10
*** Dimensionless Pressure = 0.1
*** Vibration Amplitude = 0
*** Vibration Frequency = 0.1
*** Time = 113.719850782024
*** dt = 2.27326038544775e-05
*** kn = 100
*** kt = 28.5714285714286
*** gamma_n = 88.7891059836107
*** gamma_t = 44.3945529918053
****************************************************************************

   5010000       10050   16097.399      12173.316    
Loop time of 20.3219 on 1 procs for 10000 steps with 10050 atoms

Performance: 966.494 tau/day, 492.081 timesteps/s, 4.945 Matom-step/s
99.7% CPU use with 1 MPI tasks x no OpenMP threads

MPI task timing breakdown:
Section |  min time  |  avg time  |  max time  |%varavg| %total
---------------------------------------------------------------
Pair    | 16.801     | 16.801     | 16.801     |   0.0 | 82.67
Neigh   | 0.068964   | 0.068964   | 0.068964   |   0.0 |  0.34
Comm    | 1.9544     | 1.9544     | 1.9544     |   0.0 |  9.62
Output  | 0.0087637  | 0.0087637  | 0.0087637  |   0.0 |  0.04
Modify  | 1.4603     | 1.4603     | 1.4603     |   0.0 |  7.19
Other   |            | 0.02866    |            |       |  0.14

Nlocal:          10050 ave       10050 max       10050 min
Histogram: 1 0 0 0 0 0 0 0 0 0
Nghost:          23454 ave       23454 max       23454 min
Histogram: 1 0 0 0 0 0 0 0 0 0
Neighs:          60604 ave       60604 max       60604 min
Histogram: 1 0 0 0 0 0 0 0 0 0

Total # of neighbors = 60604
Ave neighs/atom = 6.0302488
Neighbor list builds = 4
Dangerous builds = 0
variable diffke equal abs(f_long_ave-f_short_ave)
if "${diffke} <= 0.00000001" then "jump SELF break"
next Loop_Count
jump SELF loop
variable 	Loop_Count loop 10000
run 		10000
Generated 0 of 3 mixed pair_coeff terms from geometric mixing rule
Per MPI rank memory allocation (min/avg/max) = 27.33 | 27.33 | 27.33 Mbytes
   Step        Atoms        KinEng         Volume    
   5010000       10050   16097.399      12170.477    

****************************************************************************
*** Current Simulation is Initial Conditions PHASE I with parameters:
*** Friction_ON
*** Pressure = 10
*** Dimensionless Pressure = 0.1
*** Vibration Amplitude = 0
*** Vibration Frequency = 0.1
*** Time = 113.947290483588
*** dt = 2.27326038544775e-05
*** kn = 100
*** kt = 28.5714285714286
*** gamma_n = 88.7891059836107
*** gamma_t = 44.3945529918053
****************************************************************************

   5020000       10050   16095.172      12144.363    
Loop time of 20.578 on 1 procs for 10000 steps with 10050 atoms

Performance: 954.464 tau/day, 485.956 timesteps/s, 4.884 Matom-step/s
99.4% CPU use with 1 MPI tasks x no OpenMP threads

MPI task timing breakdown:
Section |  min time  |  avg time  |  max time  |%varavg| %total
---------------------------------------------------------------
Pair    | 17.037     | 17.037     | 17.037     |   0.0 | 82.79
Neigh   | 0.069285   | 0.069285   | 0.069285   |   0.0 |  0.34
Comm    | 1.9658     | 1.9658     | 1.9658     |   0.0 |  9.55
Output  | 0.0077182  | 0.0077182  | 0.0077182  |   0.0 |  0.04
Modify  | 1.4688     | 1.4688     | 1.4688     |   0.0 |  7.14
Other   |            | 0.02919    |            |       |  0.14

Nlocal:          10050 ave       10050 max       10050 min
Histogram: 1 0 0 0 0 0 0 0 0 0
Nghost:          23455 ave       23455 max       23455 min
Histogram: 1 0 0 0 0 0 0 0 0 0
Neighs:          60675 ave       60675 max       60675 min
Histogram: 1 0 0 0 0 0 0 0 0 0

Total # of neighbors = 60675
Ave neighs/atom = 6.0373134
Neighbor list builds = 4
Dangerous builds = 0
variable diffke equal abs(f_long_ave-f_short_ave)
if "${diffke} <= 0.00000001" then "jump SELF break"
next Loop_Count
jump SELF loop
variable 	Loop_Count loop 10000
run 		10000
Generated 0 of 3 mixed pair_coeff terms from geometric mixing rule
Per MPI rank memory allocation (min/avg/max) = 27.33 | 27.33 | 27.33 Mbytes
   Step        Atoms        KinEng         Volume    
   5020000       10050   16095.172      12142.093    

****************************************************************************
*** Current Simulation is Initial Conditions PHASE I with parameters:
*** Friction_ON
*** Pressure = 10
*** Dimensionless Pressure = 0.1
*** Vibration Amplitude = 0
*** Vibration Frequency = 0.1
*** Time = 114.174730185152
*** dt = 2.27326038544775e-05
*** kn = 100
*** kt = 28.5714285714286
*** gamma_n = 88.7891059836107
*** gamma_t = 44.3945529918053
****************************************************************************

   5030000       10050   16092.487      12116.274    
Loop time of 20.5213 on 1 procs for 10000 steps with 10050 atoms

Performance: 957.102 tau/day, 487.299 timesteps/s, 4.897 Matom-step/s
99.6% CPU use with 1 MPI tasks x no OpenMP threads

MPI task timing breakdown:
Section |  min time  |  avg time  |  max time  |%varavg| %total
---------------------------------------------------------------
Pair    | 16.983     | 16.983     | 16.983     |   0.0 | 82.76
Neigh   | 0.069405   | 0.069405   | 0.069405   |   0.0 |  0.34
Comm    | 1.9619     | 1.9619     | 1.9619     |   0.0 |  9.56
Output  | 0.0078378  | 0.0078378  | 0.0078378  |   0.0 |  0.04
Modify  | 1.4701     | 1.4701     | 1.4701     |   0.0 |  7.16
Other   |            | 0.02951    |            |       |  0.14

Nlocal:          10050 ave       10050 max       10050 min
Histogram: 1 0 0 0 0 0 0 0 0 0
Nghost:          23458 ave       23458 max       23458 min
Histogram: 1 0 0 0 0 0 0 0 0 0
Neighs:          60748 ave       60748 max       60748 min
Histogram: 1 0 0 0 0 0 0 0 0 0

Total # of neighbors = 60748
Ave neighs/atom = 6.0445771
Neighbor list builds = 4
Dangerous builds = 0
variable diffke equal abs(f_long_ave-f_short_ave)
if "${diffke} <= 0.00000001" then "jump SELF break"
next Loop_Count
jump SELF loop
variable 	Loop_Count loop 10000
run 		10000
Generated 0 of 3 mixed pair_coeff terms from geometric mixing rule
Per MPI rank memory allocation (min/avg/max) = 27.33 | 27.33 | 27.33 Mbytes
   Step        Atoms        KinEng         Volume    
   5030000       10050   16092.487      12113.721    

****************************************************************************
*** Current Simulation is Initial Conditions PHASE I with parameters:
*** Friction_ON
*** Pressure = 10
*** Dimensionless Pressure = 0.1
*** Vibration Amplitude = 0
*** Vibration Frequency = 0.1
*** Time = 114.402169886716
*** dt = 2.27326038544775e-05
*** kn = 100
*** kt = 28.5714285714286
*** gamma_n = 88.7891059836107
*** gamma_t = 44.3945529918053
****************************************************************************

   5040000       10050   16081.747      12087.059    
Loop time of 20.5947 on 1 procs for 10000 steps with 10050 atoms

Performance: 953.690 tau/day, 485.562 timesteps/s, 4.880 Matom-step/s
99.5% CPU use with 1 MPI tasks x no OpenMP threads

MPI task timing breakdown:
Section |  min time  |  avg time  |  max time  |%varavg| %total
---------------------------------------------------------------
Pair    | 17.052     | 17.052     | 17.052     |   0.0 | 82.80
Neigh   | 0.069502   | 0.069502   | 0.069502   |   0.0 |  0.34
Comm    | 1.9623     | 1.9623     | 1.9623     |   0.0 |  9.53
Output  | 0.009399   | 0.009399   | 0.009399   |   0.0 |  0.05
Modify  | 1.472      | 1.472      | 1.472      |   0.0 |  7.15
Other   |            | 0.0294     |            |       |  0.14

Nlocal:          10050 ave       10050 max       10050 min
Histogram: 1 0 0 0 0 0 0 0 0 0
Nghost:          23451 ave       23451 max       23451 min
Histogram: 1 0 0 0 0 0 0 0 0 0
Neighs:          60809 ave       60809 max       60809 min
Histogram: 1 0 0 0 0 0 0 0 0 0

Total # of neighbors = 60809
Ave neighs/atom = 6.0506468
Neighbor list builds = 4
Dangerous builds = 0
